Created on 

        3648 atoms
        4416 bonds
        8832 angles
        7680 dihedrals
        4608 impropers

           5 atom types
           6 bond types
           9 angle types
           3 dihedral types
           1 improper types
           0.000000  43.180440 xlo xhi
           0.000000  43.180740 ylo yhi
           0.000000  30.501656 zlo zhi
           0.004326   0.008401  -0.014034 xy xz yz

Masses

    1    15.999400000 # O_2
    2    15.999400000 # O_3_f
    3    12.010700000 # C_R
    4    26.981538600 # Al6+3
    5     1.007940000 # H_

Bond Coeffs

    1      714.557442        1.269010  # O_2 C_R
    2      239.165571        1.788660  # O_2 Al6+3
    3      602.435128        0.966432  # O_3_f H_
    4      462.655054        1.379256  # C_R C_R
    5      357.440381        1.081418  # C_R H_
    6      391.669513        1.458000  # C_R C_R

Angle Coeffs

    1              cosine/periodic      147.544119              -1               3 # C_R O_2 Al6+3 # # # # # # # # # # # # # # 
    2                      fourier      114.113638        0.343737        0.374972        0.281246 # Al6+3 O_3_f Al6+3 # # # # # # # # # # # # # # 
    3                      fourier       84.054653        0.343737        0.374972        0.281246 # Al6+3 O_3_f H_ # # # # # # # # # # # # # # 
    4              cosine/periodic      222.595017              -1               3 # C_R C_R C_R # # # # # # # # # # # # # # 
    5              cosine/periodic      114.578032              -1               3 # C_R C_R H_ # # # # # # # # # # # # # # 
    6              cosine/periodic      204.366560              -1               3 # C_R C_R C_R # # # # # # # # # # # # # # 
    7              cosine/periodic      413.556852              -1               3 # O_2 C_R O_2 # # # # # # # # # # # # # # 
    8              cosine/periodic      275.428492              -1               3 # O_2 C_R C_R # # # # # # # # # # # # # # 
    9              cosine/periodic      325.585274               1               4 # O_2 Al6+3 O_2 # # # # # # # # # # # # # # 

Dihedral Coeffs

    1        2.245703              -1               2 # Al6+3 O_2 C_R O_2
    2        1.497136              -1               2 # C_R C_R C_R C_R
    3        0.555556              -1               2 # C_R C_R C_R O_2

Improper Coeffs

    1        2.000000        1.000000       -1.000000        0.000000               0 # C_R C_R C_R H_

Atoms

2419 444 5 0.12918 21.524344212197036 10.81117958331888 13.945036899636417 0 0 0
2 444 1 -0.58786 8.099016828391486 2.0447967467388857 4.260420211811597 0 0 0
2323 444 3 -0.08619 21.332748196065587 10.442112524080724 12.944064079963018 0 0 0
8 444 1 -0.60827 14.394602468494266 10.103741128064257 4.259721908185697 0 0 0
9 444 1 -0.5786 6.3448968821783245 3.6648388776044376 5.127336373392352 0 0 0
10 444 1 -0.58742 4.932617197066337 2.926914843924541 6.684739686910285 0 0 0
15 444 1 -0.5829 16.1489250831314 8.483990719037433 5.1266173845925636 0 0 0
16 444 1 -0.6082 17.560956070646675 9.222156515144652 6.684099101914515 0 0 0
17 444 1 -0.5841 3.371428691723488 1.669208819667408 5.035453633780138 0 0 0
18 444 1 -0.60808 4.6217283464654155 2.7214322009150163 3.512179366363107 0 0 0
23 444 1 -0.58004 19.12200838195164 10.48003808916106 5.034870545655845 0 0 0
24 444 1 -0.58639 17.871928546904652 9.427686032059228 3.5115113881521065 0 0 0
25 444 1 -0.584 6.841344264562072 3.6060224465148716 2.6111374358117403 0 0 0
26 444 1 -0.60721 7.893527848292135 2.3557465093901655 10.78516907408417 0 0 0
31 444 1 -0.5791 15.65249690937186 8.542768172487692 2.6104462749431603 0 0 0
32 444 1 -0.58615 14.599991257176624 9.792880963378996 10.78452282056547 0 0 0
2115 444 5 0.12918 21.524383565355002 10.811181310780833 4.24768496501716 0 0 0
36 444 1 -0.58631 4.051161388682489 10.103642738030038 2.014246443579048 0 0 0
634 444 1 -0.60721 7.893567348220798 2.355747952682337 1.0878172627165619 0 0 1
38 444 1 -0.58678 18.442368537513993 2.0449538588529856 2.013977937390786 0 0 0
43 444 1 -0.57962 5.805572627989839 8.483892823135422 1.1473997838059573 0 0 0
44 444 1 -0.58712 7.217446954550541 9.222085279385068 9.287175825936702 0 0 0
45 444 1 -0.58046 16.688091227709485 3.6648120232311605 1.1470239941417848 0 0 0
46 444 1 -0.58652 15.275731531158153 2.9267542290675057 9.287055213625353 0 0 0
51 444 1 -0.58308 8.778577687532914 10.47997008349391 1.2390476824001695 0 0 0
52 444 1 -0.60812 7.528509579110539 9.427721813914603 2.7624757392922126 0 0 0
53 444 1 -0.58353 13.714806643404728 1.6688324807592096 1.2390125935755925 0 0 0
54 444 1 -0.6074 14.965012341343582 2.7212810659857776 2.762200676062916 0 0 0
59 444 1 -0.5832 5.309129257641355 8.542765094672115 3.6635781270405072 0 0 0
60 444 1 -0.60822 4.256565019746667 9.792919666535278 5.18674836582636 0 0 0
61 444 1 -0.58326 17.18455056810947 3.6060886514814494 3.6632231126879526 0 0 0
62 444 1 -0.60922 18.236798107400244 2.355961107521166 5.186630651582417 0 0 0
65 444 2 -0.99602 6.338833880366316 1.082878411843368 2.6549809093750447 0 0 0
68 444 2 -0.99508 16.154609483596865 11.065958945157215 2.6543017684878074 0 0 0
69 444 2 -0.99661 5.894580938261416 1.1667094729213996 5.079289328495216 0 0 0
72 444 2 -0.99415 16.598824044665335 10.982186372942877 5.078610445575401 0 0 0
74 444 2 -0.99396 5.811166478783841 11.065989997220482 3.6196309861482754 0 0 0
75 444 2 -0.9962 16.682284205734216 1.082910313880454 3.6194242588515086 0 0 0
78 444 2 -0.99472 6.25538309077312 10.982136842400879 1.1953167946079182 0 0 0
79 444 2 -0.99441 16.23801822152161 1.166671162939279 1.1951213180036915 0 0 0
81 444 3 -0.07068 10.681639137112091 2.4662066608769004 5.188881943757531 0 0 0
82 444 3 -0.056 10.431535928037928 1.9168794531201403 3.9159390705351322 0 0 0
83 444 3 0.63837 9.043177323343333 1.6025065747830922 3.515839196983103 0 0 0
90 444 3 -0.06989 11.812151706221913 9.682045727150717 5.188350279025402 0 0 0
91 444 3 -0.05548 12.062098980356579 10.231549819591956 3.915450064069938 0 0 0
92 444 3 0.63323 13.450374552669448 10.545977164786336 3.515214186738255 0 0 0
93 444 3 -0.07182 4.511602151457106 5.5095680029039595 7.613371305238028 0 0 0
94 444 3 -0.05398 5.060825599608825 5.259448424070747 6.340387062151423 0 0 0
95 444 3 0.63653 5.375043007033566 3.871070473076471 5.940222468736067 0 0 0
102 444 3 -0.0694 17.98283051982536 6.639621075314255 7.612529239154266 0 0 0
103 444 3 -0.05605 17.433296724660362 6.889631884036422 6.33965115505258 0 0 0
104 444 3 0.63295 17.11880308983872 8.277942653090584 5.939516088756474 0 0 0
105 444 3 -0.07185 2.7079195692421365 2.4691255431798744 1.5314708600022668 0 0 0
106 444 3 -0.05438 2.4757364494579823 2.0176286261335967 2.84542782913039 0 0 0
107 444 3 0.63272 3.596503205225935 2.016754230412155 3.814295703999247 0 0 0
114 444 3 -0.07134 19.785665076394288 9.680609248427238 1.5308242357456139 0 0 0
115 444 3 -0.05488 20.01777328741925 10.131888784871332 2.8448692803944713 0 0 0
116 444 3 0.63665 18.897010127628192 10.13253484083318 3.8136877662397533 0 0 0
117 444 3 -0.07136 7.641294735204933 4.269626476647097 8.80453375427273 0 0 0
118 444 3 -0.05554 7.18984627535058 4.501789509761113 10.118513475811822 0 0 0
119 444 3 0.63343 7.188914886186315 3.3809818250477757 1.389975814699649 0 0 0
126 444 3 -0.07172 14.852992755087392 7.8791969745307355 8.803733637555103 0 0 0
127 444 3 -0.05426 15.304182153928034 7.647035999171091 10.117798860946916 0 0 0
128 444 3 0.63614 15.30489734893944 8.76779102002732 1.3892927913258906 0 0 0
132 444 3 -0.07109 1.4686775729817292 9.682181183192817 1.0855139594199346 0 0 0
133 444 3 -0.05594 1.7186384970552364 10.231610676191792 2.3584374554546406 0 0 0
134 444 3 0.63853 3.106922987467063 10.54599653615563 2.7586997979595034 0 0 0
135 444 3 -0.07096 21.024953580658597 2.4672490859526106 1.085864767693832 0 0 0
136 444 3 -0.05585 20.77490032203661 1.9176174728675168 2.358683931305263 0 0 0
137 444 3 0.63617 19.38656765649109 1.6029146811856523 2.75867188225586 0 0 0
144 444 3 -0.07145 7.639823669967432 6.639482116434472 8.35909710129171 0 0 0
145 444 3 -0.05614 7.090155250998958 6.889538562435288 9.631900440373938 0 0 0
640 444 1 -0.58615 14.600030266893551 9.792882553046512 1.087171152464659 0 0 1
147 444 3 -0.07283 14.854567163848468 5.509336089573849 8.358317495923002 0 0 0
148 444 3 -0.05483 15.403886858532276 5.259297482311231 9.631275553794323 0 0 0
945 444 1 -0.57869 13.655909935075318 1.1723686828701334 8.420196346442907 0 1 0
156 444 3 -0.07024 9.442251051175894 9.680618007990683 4.7431039170023634 0 0 0
157 444 3 -0.05471 9.674350628061628 10.131919426986673 3.429059669104401 0 0 0
158 444 3 0.63221 8.553576349920249 10.13255223658471 2.4602631107849993 0 0 0
159 444 3 -0.07122 13.05145742071284 2.4683244919760363 4.743123231203172 0 0 0
160 444 3 -0.05511 12.819213006849678 2.017033116131996 3.429101972657734 0 0 0
161 444 3 0.63287 13.939900767535963 2.0164225588918088 2.460160138653485 0 0 0
168 444 3 -0.07119 4.509714589652839 7.879384745778234 7.1677018992175565 0 0 0
169 444 3 -0.05458 4.960878767715626 7.647144210008812 5.853638936233042 0 0 0
170 444 3 0.63262 4.961481995399934 8.767840163679109 4.884713131695853 0 0 0
171 444 3 -0.07036 17.984086321300953 4.269742418282696 7.16725609475102 0 0 0
172 444 3 -0.05734 17.532797276121517 4.501875862395301 5.853212367775559 0 0 0
173 444 3 0.63404 17.532030225490082 3.3810811125242037 4.88442339957626 0 0 0
177 444 3 -0.08608 11.504167067683188 1.70661738641416 3.0274633964071778 0 0 0
178 444 3 -0.09011 11.984933199373243 2.732217238432269 5.5962164043177625 0 0 0
183 444 3 -0.08524 10.98935864466297 10.442114811513203 3.02720699834136 0 0 0
184 444 3 -0.09005 10.508881814906749 9.416330939007715 5.595939461411521 0 0 0
185 444 3 -0.08669 5.271166017505838 6.332083253370466 5.451935124160727 0 0 0
186 444 3 -0.09006 4.245769904613298 6.812872781102224 8.020764481676744 0 0 0
189 444 3 -0.08494 1.1606933738810423 1.7071894236649754 3.2470911822848243 0 0 0
3 444 1 -0.58313 19.18069338406851 10.97650836515212 7.551028659376697 0 0 0
585 444 5 0.12947 5.640048093131847 6.140377524850469 14.148271505924924 0 0 0
607 444 5 0.12876 16.853533110661434 6.008532512668507 14.1477522162182 0 0 0
197 444 3 -0.08529 6.879600782295092 5.816851889276332 0.8229027766574544 0 0 0
198 444 3 -0.08866 7.905605948817749 5.33618663543229 7.951647681342929 0 0 0
203 444 3 -0.08703 15.614414001173161 6.331994568679604 0.8222626606412929 0 0 0
204 444 3 -0.09007 14.588866491149545 6.812627697247106 7.950796016138604 0 0 0
207 444 3 -0.08345 17.222660513938376 5.816917407096518 5.451372916721662 0 0 0
208 444 3 -0.08977 18.248450101550546 5.3363299849395185 8.02008901203744 0 0 0
210 444 4 1.63392 17.8846958059728 10.96698312777666 6.296754292383334 0 0 0
211 444 4 1.63512 4.6086493580292505 1.1820979989077243 6.297388882539531 0 0 0
213 444 4 1.63546 6.35421453079136 2.368796258910172 3.8730710109395687 0 0 0
216 444 4 1.63393 16.1394127252656 9.780038675479808 3.872380775209254 0 0 0
222 444 4 1.63246 5.795999220316401 9.780007302582037 2.4016042216452766 0 0 0
223 444 4 1.63427 16.69754112726481 2.3688051754090256 2.401322184697212 0 0 0
226 444 5 0.10995 18.165066142787367 7.453667484448638 8.303847207804898 0 0 0
228 444 5 0.11107 14.66585061928571 8.888253923658477 8.457186892596615 0 0 0
364 444 1 -0.60822 4.256525480703291 9.792918228776086 14.88410053429971 0 0 0
521 444 4 1.63364 14.952015672115754 1.1819039548886274 9.674410527963575 0 0 0
233 444 5 0.11151 7.8220418538985745 7.453496507498518 7.667736363052871 0 0 0
236 444 5 0.1106 8.43318621407762 9.493548985172701 5.089701231377387 0 0 0
237 444 5 0.11035 14.060540488782303 2.6556557257049986 5.089524879741875 0 0 0
239 444 5 0.11068 4.322453401307224 8.888451890013673 7.514150144356077 0 0 0
241 444 5 0.11095 9.867647839356671 2.64804074905488 5.880389724486151 0 0 0
244 444 5 0.11027 12.626251014226472 9.499887218340097 5.879648265183939 0 0 0
245 444 5 0.11098 4.329725126534351 4.695597496764529 8.30487328349854 0 0 0
247 444 5 0.1113 3.716996674133703 2.6564186032849304 1.1850225574918898 0 0 0
250 444 5 0.11134 18.776599454628382 9.493498364612464 1.1842435303525585 0 0 0
251 444 5 0.11091 7.8284778143826586 3.2605655552104627 8.458011053628857 0 0 0
254 444 5 0.11157 14.672538239681483 4.695310468841746 7.666916793879363 0 0 0
256 444 5 0.11094 18.171144765675955 3.2606854558275606 7.513848247059977 0 0 0
258 444 5 0.4184 15.90349493804855 10.852443593420588 7.521509461183073 0 0 0
259 444 5 0.41889 6.589780110302544 1.2964320970598557 7.522300082316045 0 0 0
262 444 5 0.41881 16.812265302410704 10.731216906034174 9.945871793628468 0 0 0
263 444 5 0.41875 5.681050380010203 1.4176755295137007 9.946633561414849 0 0 0
2324 444 3 -0.09036 20.852247748192983 9.416420528504505 10.37529561337135 0 0 0
265 444 5 0.41851 16.933134286163675 1.2964816589626345 8.449500040034826 0 0 0
268 444 5 0.41835 5.560032769784545 10.852431244037975 8.449761259489124 0 0 0
269 444 5 0.41836 16.024475042046586 1.4177027431489446 6.025184408705358 0 0 0
272 444 5 0.4202 6.468873654289371 10.73130959331835 6.025381030423999 0 0 0
273 444 5 0.12932 11.312455769383844 1.3376048284940367 2.0264891443276243 0 0 0
274 444 5 0.10636 12.171776393863214 3.118437623565069 6.590130672980887 0 0 0
279 444 5 0.1294 11.180947576119117 10.811209139420926 2.0262411590500276 0 0 0
280 444 5 0.10652 10.322149931992628 9.03005168211995 6.58985002727251 0 0 0
281 444 5 0.12947 5.640087536115248 6.140379085623557 4.450919613045138 0 0 0
282 444 5 0.10665 3.859604045197419 6.999713441705456 9.014695529009215 0 0 0
285 444 5 0.12885 0.9690383442262941 1.3379553027246576 4.247988978680982 0 0 0
286 444 5 0.10641 1.8281268794875134 3.119641213879233 9.381995119020479 0 0 0
583 444 5 0.1294 11.180908180195871 10.811207779630516 11.723593020232997 0 0 0
603 444 5 0.12904 15.983361251978542 6.140360147858571 11.520618015968074 0 0 0
293 444 5 0.12943 6.510384795894424 6.008490813865151 1.823818549565948 0 0 0
294 444 5 0.10639 8.29203037398555 5.149391585427135 6.957809621158244 0 0 0
299 444 5 0.12904 15.9834006386384 6.140361691277373 1.8232661347841816 0 0 0
300 444 5 0.10616 14.202673664463868 6.999414853574228 6.956865404206145 0 0 0
303 444 5 0.12876 16.85357252470705 6.008534072544355 4.450400302404338 0 0 0
304 444 5 0.1075 18.634769810067926 5.1495648800932345 9.013975151200427 0 0 0
2019 444 3 -0.08619 21.332787710699012 10.442114421893226 3.246712606403226 0 0 0
306 444 1 -0.58786 8.098977234855788 2.044795227127623 13.95777230684493 0 0 0
554 444 5 0.11134 18.776560044156813 9.49349651456642 10.881595539953713 0 0 0
312 444 1 -0.60827 14.394563287290643 10.103739714063154 13.957073881268341 0 0 0
313 444 1 -0.5786 6.344856794577176 3.664837157636913 14.824688501389897 0 0 0
319 444 1 -0.5829 16.148886010312747 8.483989384270103 14.823969596828585 0 0 0
321 444 1 -0.5841 3.3713889741683216 1.6692071354560012 14.732805866593354 0 0 0
322 444 1 -0.60808 4.621688628439855 2.7214301705459016 13.209531432242951 0 0 0
327 444 1 -0.58004 19.121969257211596 10.48003670816193 14.732222889239527 0 0 0
328 444 1 -0.58639 17.871889423286607 9.427684723333495 13.208863719708349 0 0 0
329 444 1 -0.584 6.841304692860376 3.6060210158788086 12.308489424997964 0 0 0
335 444 1 -0.5791 15.652457642789294 8.542766504218358 12.307798303773252 0 0 0
551 444 5 0.1113 3.716957211142871 2.6564167968898236 10.882374310115717 0 0 0
340 444 1 -0.58631 4.051121996502433 10.103641346697849 11.71159852799477 0 0 0
366 444 1 -0.60922 18.236758608800056 2.3559594198428315 14.883983002405571 0 0 0
342 444 1 -0.58678 18.44232915515212 2.044952069031984 11.711330163741799 0 0 0
347 444 1 -0.57962 5.805533478958775 8.483891334213293 10.844751668511323 0 0 0
349 444 1 -0.58046 16.68805193707359 3.664810395440265 10.844375830784363 0 0 0
355 444 1 -0.58308 8.778538267467763 10.479968453235763 10.936399543448072 0 0 0
356 444 1 -0.60812 7.528470234760877 9.427720432362396 12.459827760475262 0 0 0
357 444 1 -0.58353 13.714767408606198 1.668830891865518 10.936364422216137 0 0 0
358 444 1 -0.6074 14.964972987665616 2.721279572424593 12.459552471224189 0 0 0
363 444 1 -0.5832 5.309089877835475 8.542763666472489 13.360930220504478 0 0 0
365 444 1 -0.58326 17.184511228342263 3.606087015770055 13.360575194577413 0 0 0
369 444 2 -0.99602 6.338794093834654 1.082876572795045 12.352332718870757 0 0 0
372 444 2 -0.99508 16.15457073107286 11.065957602025346 12.35165353987762 0 0 0
373 444 2 -0.99661 5.894541371824848 1.1667077940314008 14.776641383620966 0 0 0
376 444 2 -0.99415 16.598784733566518 10.982184878961425 14.775962563274948 0 0 0
378 444 2 -0.99396 5.811127306919971 11.065988765937778 13.31698308828412 0 0 0
379 444 2 -0.9962 16.682244435021218 1.0829085439297292 13.316776395625093 0 0 0
382 444 2 -0.99472 6.255343694417026 10.982135475749912 10.892668647619551 0 0 0
383 444 2 -0.99441 16.237978990296575 1.1666695438783645 10.892473166344805 0 0 0
385 444 3 -0.07068 10.681599859105736 2.4662053828661414 14.886233740827512 0 0 0
386 444 3 -0.056 10.43149647454557 1.9168781761359013 13.613291012646265 0 0 0
387 444 3 0.63837 9.043138225302494 1.6025050735533954 13.213191029609177 0 0 0
394 444 3 -0.06989 11.812112305622893 9.682044483506857 14.885702121506675 0 0 0
395 444 3 -0.05548 12.062059713616883 10.23154847543564 13.612801989987942 0 0 0
396 444 3 0.63323 13.4503349533377 10.545975767619545 13.21256585696021 0 0 0
917 444 1 -0.57919 3.312576523890525 1.1727488491522737 7.551627714160591 0 1 0
39 444 1 -0.58008 8.837218930377666 10.976463107219862 8.420228530827494 0 0 0
409 444 3 -0.07185 2.7078803202905566 2.469123877162347 11.22882246061387 0 0 0
410 444 3 -0.05438 2.475696694775256 2.0176266356118826 12.542780143105924 0 0 0
411 444 3 0.63272 3.596464407482706 2.0167530337526607 13.511646755119031 0 0 0
418 444 3 -0.07134 19.78562545453129 9.68060737077765 11.228176007225077 0 0 0
419 444 3 -0.05488 20.017734244106098 10.131887274987262 12.542221744061537 0 0 0
420 444 3 0.63665 18.8969701298806 10.132532679383274 13.511038992551661 0 0 0
423 444 3 0.63343 7.18887580005145 3.3809800277415922 11.087327515887617 0 0 0
432 444 3 0.63614 15.304857904111294 8.76778978685756 11.086644454882277 0 0 0
436 444 3 -0.07109 1.4686381422906285 9.682179424920768 10.782865618032673 0 0 0
437 444 3 -0.05594 1.7185990875621 10.23160921967906 12.055789753671334 0 0 0
438 444 3 0.63853 3.1068836075247246 10.54599443793683 12.45605099159871 0 0 0
439 444 3 -0.07096 21.024914120570436 2.4672475132613774 10.783216472382042 0 0 0
440 444 3 -0.05585 20.77486090037468 1.9176155612134955 12.056036280709037 0 0 0
441 444 3 0.63617 19.386528208343204 1.6029136020743264 12.456023260915858 0 0 0
450 444 3 0.63866 6.775435556305772 8.27787505353346 10.031878201028732 0 0 0
453 444 3 0.63793 15.718166691852758 3.8709633763634597 10.031512696803729 0 0 0
460 444 3 -0.07024 9.442211690663127 9.680616772870568 14.440455838013659 0 0 0
461 444 3 -0.05471 9.67431124687458 10.131918097156419 13.126411610894346 0 0 0
462 444 3 0.63221 8.553537017914667 10.132550818296057 12.157615009978574 0 0 0
463 444 3 -0.07122 13.051418084896337 2.4683232339409584 14.440474997127673 0 0 0
464 444 3 -0.05511 12.81917364910477 2.017031805314017 13.126453810312176 0 0 0
465 444 3 0.63287 13.939861365592813 2.016421113520864 12.157511932336368 0 0 0
474 444 3 0.63262 4.961442673605091 8.767838440172492 14.582064503815428 0 0 0
477 444 3 0.63404 17.53199050319132 3.381079698257609 14.581774858195955 0 0 0
481 444 3 -0.08608 11.504127711330248 1.706616050166336 12.72481519515661 0 0 0
541 444 5 0.11035 14.060501148074836 2.6556545137217316 14.786876623794894 0 0 0
487 444 3 -0.08524 10.98931924305368 10.442113503870463 12.724558830653502 0 0 0
540 444 5 0.1106 8.43314686404441 9.493547783779546 14.78705320005592 0 0 0
489 444 3 -0.08669 5.271126462963134 6.332081628015618 15.149286527949249 0 0 0
493 444 3 -0.08494 1.1606541036848899 1.7071878433017096 12.944442598634286 0 0 0
494 444 3 -0.0892 1.641318604761528 2.7332458469225465 10.375845826463296 0 0 0
577 444 5 0.12932 11.312416375327244 1.3376034727163555 11.723841009453885 0 0 0
597 444 5 0.12943 6.510345406585061 6.008489285560871 11.521170401620017 0 0 0
501 444 3 -0.08529 6.879561657855834 5.8168503414875685 10.520254642718832 0 0 0
507 444 3 -0.08703 15.61437481920123 6.331993127638019 10.519614393458314 0 0 0
511 444 3 -0.08345 17.22262070108112 5.816915821060773 15.148724519470939 0 0 0
589 444 5 0.12885 0.9689989753720986 1.337953529148853 13.94534085713822 0 0 0
2116 444 5 0.10607 20.66550461669976 9.030184990491128 9.381369800220359 0 0 0
517 444 4 1.63546 6.354176024722469 2.3687950286227397 13.570422241953102 0 0 0
520 444 4 1.63393 16.139372392729275 9.780036774581866 13.569732047734485 0 0 0
535 444 5 0.11156 20.210890069040353 2.6493004132393705 10.091801554892255 0 0 0
524 444 4 1.63438 7.541221232730312 10.966931843600497 9.67452893846585 0 0 0
526 444 4 1.63246 5.795959740617593 9.78000546384746 12.09895576176829 0 0 0
527 444 4 1.63427 16.697501916992678 2.3688039742330504 12.098673693466495 0 0 0
534 444 5 0.11101 2.2827274746547537 9.500104049470329 10.091534052258693 0 0 0
2724 444 5 0.10607 20.66542599919577 9.030182091572774 28.7760734835862 0 0 0
2628 444 3 -0.09036 20.852208271595423 9.416419262194882 20.072647609827012 0 0 0
220 444 4 1.63438 7.541141910263721 10.966928860303975 29.069232341020363 0 0 -1
314 444 1 -0.58742 4.9325775547810435 2.926913017464042 16.382092066532707 0 0 0
320 444 1 -0.6082 17.56091681336302 9.222155081151099 16.381451485723822 0 0 0
330 444 1 -0.60721 7.8934882121331995 2.355744938096749 20.482521322928 0 0 0
336 444 1 -0.58615 14.599951541387767 9.79287938657167 20.481875163920083 0 0 0
348 444 1 -0.58712 7.217407002061854 9.222083337152178 18.984528514219 0 0 0
350 444 1 -0.58652 15.275692288086761 2.9267528676050643 18.98440779546428 0 0 0
1525 444 1 -0.57919 3.3124975348425623 1.1727449976186124 26.946332014414143 0 1 0
217 444 4 1.63364 14.95193727860718 1.1819007084796713 29.069113934416553 0 0 -1
397 444 3 -0.07182 4.511561950476419 5.509566426102901 17.3107226216775 0 0 0
398 444 3 -0.05398 5.060785415136616 5.25944661075452 16.037739268592798 0 0 0
406 444 3 -0.0694 17.982790154091344 6.639619261980127 17.30988123206279 0 0 0
407 444 3 -0.05605 17.433257083311705 6.88963040973416 16.03700375527589 0 0 0
421 444 3 -0.07136 7.641254667856382 4.269624854835111 18.50188533323188 0 0 0
422 444 3 -0.05554 7.189806255350318 4.501787784561869 19.81586560452144 0 0 0
430 444 3 -0.07172 14.852952589312403 7.879195234554498 18.501085498263688 0 0 0
431 444 3 -0.05426 15.304142351842335 7.647034433596972 19.815151148071067 0 0 0
448 444 3 -0.07145 7.639783508806864 6.639480636587829 18.0564484346645 0 0 0
449 444 3 -0.05614 7.090114859927222 6.889536596580418 19.329252933723698 0 0 0
451 444 3 -0.07283 14.854526783639578 5.509334174960339 18.055669305589316 0 0 0
452 444 3 -0.05483 15.403847237625419 5.259296126707591 19.328628307243697 0 0 0
472 444 3 -0.07119 4.509674630529696 7.87938303693739 16.865053436960462 0 0 0
473 444 3 -0.05458 4.9608388945908 7.64714267909394 15.550991044611544 0 0 0
475 444 3 -0.07036 17.98404624361775 4.26974078414314 16.864608010689004 0 0 0
476 444 3 -0.05734 17.5327576759195 4.501874157958952 15.550564676025278 0 0 0
490 444 3 -0.09006 4.24572958005474 6.812871052815966 17.718116151873115 0 0 0
502 444 3 -0.08866 7.905565619802184 5.336184848290605 17.64899946992387 0 0 0
508 444 3 -0.09007 14.588826253473533 6.812626078589907 17.648148253376615 0 0 0
512 444 3 -0.08977 18.248409854189376 5.336328301785867 17.717441313898565 0 0 0
515 444 4 1.63512 4.6086099770544955 1.1820967950840888 15.994739653985471 0 0 0
530 444 5 0.10995 18.16502557381718 7.453665775579713 18.001199548165605 0 0 0
532 444 5 0.11107 14.6658104699553 8.888252243260684 18.154538888367224 0 0 0
537 444 5 0.11151 7.822001389524419 7.453494745261594 17.365087945255663 0 0 0
543 444 5 0.11068 4.3224133508861495 8.888450211978315 17.211501854678097 0 0 0
549 444 5 0.11098 4.32968456877648 4.695595743610556 18.002224714524093 0 0 0
555 444 5 0.11091 7.828437668281573 3.260563850017679 18.155362805400493 0 0 0
558 444 5 0.11157 14.67249776658909 4.6953087853663815 17.364268996880096 0 0 0
560 444 5 0.11094 18.17110471443081 3.260683772289101 17.211200283176463 0 0 0
562 444 5 0.4184 15.903455465945662 10.852441925353455 17.218861335105654 0 0 0
563 444 5 0.41889 6.589740534011593 1.2964303787428246 17.219651888027414 0 0 0
566 444 5 0.41881 16.81222566163253 10.731215286803387 19.64322363297617 0 0 0
567 444 5 0.41875 5.68101071168826 1.417673880469872 19.643985387055793 0 0 0
569 444 5 0.41851 16.933094666984466 1.2964799967216598 18.146851925279268 0 0 0
572 444 5 0.41835 5.559993119772979 10.85242959360458 18.1471130479932 0 0 0
573 444 5 0.41836 16.024435426667623 1.4177011985155954 15.722536214046128 0 0 0
576 444 5 0.4202 6.468834046076032 10.731307965619852 15.72273289211831 0 0 0
578 444 5 0.10636 12.17173708809882 3.1184364263437314 16.28748244807888 0 0 0
584 444 5 0.10652 10.322110605949996 9.030050505984457 16.287201966415992 0 0 0
586 444 5 0.10665 3.859563521528893 6.999711697677636 18.712046972554777 0 0 0
590 444 5 0.10641 1.8280873257706942 3.1196398669880647 19.079347038153838 0 0 0
912 444 5 0.1075 18.634690225387214 5.149561614082894 28.40867900878528 0 0 0
598 444 5 0.10639 8.291989928764155 5.149389861684916 16.655161185009387 0 0 0
604 444 5 0.10616 14.202633179508139 6.9994131059627405 16.65421751885302 0 0 0
608 444 5 0.1075 18.63472925227705 5.149563129182519 18.711327398889324 0 0 0
2723 444 5 0.12918 21.524304587146613 10.811178126905677 23.642388812051323 0 0 0
610 444 1 -0.58786 8.098937446961997 2.0447936916754372 23.655124624640667 0 0 0
2627 444 3 -0.08619 21.332708373753903 10.442110845557819 22.641415283683326 0 0 0
616 444 1 -0.60827 14.39452381610477 10.10373801990962 23.65442626625396 0 0 0
617 444 1 -0.5786 6.344816753184822 3.6648352986788133 24.522040765953474 0 0 0
618 444 1 -0.58742 4.932537667038246 2.9269111741782754 26.07944459113816 0 0 0
623 444 1 -0.5829 16.14884695747256 8.483988075714539 24.521321859251064 0 0 0
624 444 1 -0.6082 17.560877598123973 9.222153806853097 26.07880399642379 0 0 0
625 444 1 -0.5841 3.3713487493627396 1.6692052182825148 24.4301584719276 0 0 0
626 444 1 -0.60808 4.621648599432678 2.7214280451409434 22.90688388902341 0 0 0
631 444 1 -0.58004 19.12193028109259 10.480035426862118 24.429575372981407 0 0 0
632 444 1 -0.58639 17.87185025021411 9.427683721202202 22.906216048391197 0 0 0
633 444 1 -0.584 6.841265016206413 3.606019302506712 22.00584156132209 0 0 0
825 444 4 1.63364 14.951975428656793 1.1819017780478385 19.3717608733545 0 0 0
639 444 1 -0.5791 15.652418054955975 8.5427650096271 22.00515043697035 0 0 0
1553 444 1 -0.57869 13.655830807996946 1.1723659297545048 27.81490033275897 0 1 0
908 444 5 0.10616 14.202593923475993 6.99941156318841 26.351569461144525 0 0 0
644 444 1 -0.58631 4.051082131588646 10.103639888917655 21.408950977258254 0 0 0
1221 444 1 -0.57919 3.312537047936974 1.1727469203768226 17.248979801918434 0 1 0
646 444 1 -0.58678 18.44228978812501 2.0449504532088976 21.408682520415766 0 0 0
651 444 1 -0.57962 5.805493073561528 8.483889482586223 20.54210400629724 0 0 0
652 444 1 -0.58712 7.217368275250604 9.22208203367133 28.68187964426937 0 0 0
653 444 1 -0.58046 16.688012866523263 3.664809140454669 20.541728200371427 0 0 0
654 444 1 -0.58652 15.275652684933027 2.92675112285684 28.681758980752196 0 0 0
659 444 1 -0.58308 8.77849799201304 10.47996660320874 20.633752225801476 0 0 0
660 444 1 -0.60812 7.528430103919724 9.42771813481045 22.15718021071925 0 0 0
661 444 1 -0.58353 13.714728387024032 1.6688296169231343 20.63371699802473 0 0 0
662 444 1 -0.6074 14.964933855407214 2.7212785038843244 22.156905005074893 0 0 0
667 444 1 -0.5832 5.3090500609305415 8.542762103075987 23.058282440931766 0 0 0
668 444 1 -0.60822 4.256485816495952 9.792916735895792 24.58145280066135 0 0 0
669 444 1 -0.58326 17.184471704194507 3.60608535483997 23.057927411704785 0 0 0
670 444 1 -0.60922 18.23671922036635 2.3559577844350796 24.581335105178052 0 0 0
673 444 2 -0.99602 6.33875446846856 1.0828749760933358 22.049684971872605 0 0 0
676 444 2 -0.99508 16.1545310303514 11.065956001820581 22.049005858911666 0 0 0
677 444 2 -0.99661 5.894501660580262 1.166705983732547 24.473993536799473 0 0 0
680 444 2 -0.99415 16.59874525135176 10.982183543828036 24.473314700163375 0 0 0
682 444 2 -0.99396 5.811087481716951 11.065986995994153 23.014335288346114 0 0 0
683 444 2 -0.9962 16.68220513698993 1.0829070427984389 23.01412858784104 0 0 0
686 444 2 -0.99472 6.2553038426786545 10.982133718890875 20.59002086623745 0 0 0
687 444 2 -0.99441 16.237939538271984 1.1666680625692554 20.589825351638716 0 0 0
689 444 3 -0.07068 10.68156015090581 2.466203947745188 24.58358516971335 0 0 0
690 444 3 -0.056 10.431456855885195 1.9168770252479612 23.31064339202604 0 0 0
691 444 3 0.63837 9.043098716215013 1.602502936697749 22.910542086098022 0 0 0
698 444 3 -0.06989 11.812072637620036 9.682043262935505 24.583053895685175 0 0 0
699 444 3 -0.05548 12.062020008313002 10.231546670162363 23.310154603835702 0 0 0
700 444 3 0.63323 13.450295163436573 10.54597481742684 22.909917082306414 0 0 0
701 444 3 -0.07182 4.511522818949064 5.509565048871829 27.008074367546076 0 0 0
702 444 3 -0.05398 5.06074565620078 5.259444823276339 25.73509186802138 0 0 0
703 444 3 0.63653 5.374965225867866 3.8710680710423855 25.334924429562914 0 0 0
710 444 3 -0.0694 17.982750874780763 6.639617565445956 27.007232673895754 0 0 0
711 444 3 -0.05605 17.433218036269807 6.88962908332067 25.734356205935253 0 0 0
712 444 3 0.63295 17.118722542314895 8.277938692208512 25.334218169579287 0 0 0
713 444 3 -0.07185 2.7078410566578546 2.4691225417706755 20.926174103526336 0 0 0
714 444 3 -0.05438 2.4756564212780483 2.0176247188416165 22.240132908781195 0 0 0