Created on Sat Jun 05 19:06:38 2021 

        3712 atoms
        4096 bonds
        7808 angles
        9856 dihedrals
        3072 impropers

           8 atom types
          15 bond types
          33 angle types
           6 dihedral types
           1 improper types
           0.000000  37.895777 xlo xhi
           0.000000  39.469369 ylo yhi
           0.000000  30.158718 zlo zhi
           0.002071   0.003701  -1.241614 xy xz yz

Masses

    1    65.380000000 # Zn3f2
    2     1.007940000 # H_
    3    12.010700000 # C_R
    4    12.010700000 # C_3
    5    14.006700000 # N_3
    6    14.006700000 # N_R
    7    15.999400000 # O_2
    8    15.999400000 # O_R

Atoms

       1      444        1     0.82244    2.24848    0.56706    4.48979
       2      444        1     0.82244    2.24931   10.43576    4.48726
       3      444        1     0.82244   11.72251    0.56591    4.48867
       4      444        1     0.82244   11.72333   10.43462    4.48617
       5      444        1     0.82244    6.95069    3.62508    2.73747
       6      444        1     0.82244    6.95140   13.49435    2.73586
       7      444        1     0.82244   16.42452    3.62466    2.73689
       8      444        1     0.82244   16.42519   13.49390    2.73526
       9      444        1     0.82244    6.98669    8.69147   10.60715
      10      444        1     0.82244    6.98748   18.55745   10.60969
      11      444        1     0.82244   16.46060    8.69133   10.60670
      12      444        1     0.82244   16.46138   18.55731   10.60917
      13      444        1     0.82244    2.21483    5.63316   12.35931
      14      444        1     0.82244    2.21550   15.49858   12.36091
      15      444        1     0.82244   11.68886    5.63245   12.35838
      16      444        1     0.82244   11.68953   15.49791   12.36001
      17      444        2     0.31454    1.80486    3.21163   12.43215
      18      444        2     0.31454    1.80583   13.07679   12.43254
      19      444        2     0.31454   11.27787    3.21105   12.43076
      20      444        2     0.31454   11.27892   13.07626   12.43121
      21      444        2     0.31454    0.88977    3.89523   11.16997
      22      444        2     0.31454    0.89038   13.76122   11.17106
      23      444        2     0.31454   10.36348    3.89518   11.16838
      24      444        2     0.31454   10.36411   13.76113   11.16952
      25      444        2     0.09830    4.93285    2.30100    4.74508
      26      444        2     0.09830    4.93367   12.16942    4.74297
      27      444        2     0.09830   14.40653    2.30027    4.74427
      28      444        2     0.09830   14.40731   12.16875    4.74216
      29      444        2     0.09830    2.51894    1.47130    1.46447
      30      444        2     0.09830    2.51972   11.34085    1.46209
      31      444        2     0.09830   11.99348    1.46973    1.46329
      32      444        2     0.09830   11.99422   11.33920    1.46093
      33      444        2     0.09830    5.36010    5.08649    0.92619
      34      444        2     0.09830    5.36039   14.95640    0.92522
      35      444        2     0.09830   14.83400    5.08566    0.92538
      36      444        2     0.09830   14.83429   14.95545    0.92436
      37      444        2     0.09830    3.67582    2.22376   14.76230
      38      444        2     0.09830    3.67600   12.08835   14.76438
      39      444        2     0.09830   13.14994    2.22262   14.76140
      40      444        2     0.09830   13.15015   12.08732   14.76345
      41      444        2     0.09830    5.44988    2.36931   14.85917
      42      444        2     0.09830    5.45009   12.23365   14.86101
      43      444        2     0.09830   14.92401    2.36835   14.85821
      44      444        2     0.09830   14.92422   12.23278   14.86007
      45      444        2     0.09830    2.87084    5.50622    4.26613
      46      444        2     0.09830    2.87460   15.37269    4.26616
      47      444        2     0.09830   12.34495    5.50519    4.26529
      48      444        2     0.09830   12.34865   15.37162    4.26526
      49      444        2     0.09830    1.48456    6.13377    3.34318
      50      444        2     0.09830    1.48640   15.99917    3.34542
      51      444        2     0.09830   10.95849    6.13253    3.34252
      52      444        2     0.09830   10.96030   15.99797    3.34466
      53      444        2     0.31454    0.87613    8.47567    3.78923
      54      444        2     0.31454    0.87645   18.34109    3.79282
      55      444        2     0.31454   10.34988    8.47455    3.78866
      56      444        2     0.31454   10.35020   18.33998    3.79216
      57      444        2     0.31454    2.09857    8.77760    2.65249
      58      444        2     0.31454    2.09763   18.64390    2.65500
      59      444        2     0.31454   11.57204    8.77630    2.65156
      60      444        2     0.31454   11.57116   18.64263    2.65399
      61      444        2     0.09830    2.40178    7.55248    5.35022
      62      444        2     0.09830    2.40353   17.41781    5.35200
      63      444        2     0.09830   11.87571    7.55141    5.34937
      64      444        2     0.09830   11.87747   17.41679    5.35106
      65      444        2     0.09830    3.77310    7.98241    4.28914
      66      444        2     0.09830    3.77403   17.84946    4.29050
      67      444        2     0.09830   13.24693    7.98146    4.28818
      68      444        2     0.09830   13.24787   17.84848    4.28944
      69      444        2     0.09830    2.55650    6.49356    9.30101
      70      444        2     0.09830    2.55668   16.36089    9.30324
      71      444        2     0.09830   12.03072    6.49296    9.30025
      72      444        2     0.09830   12.03090   16.36025    9.30249
      73      444        2     0.31454    2.62457    4.30140    1.83628
      74      444        2     0.31454    2.62443   14.17065    1.83385
      75      444        2     0.31454   12.09853    4.30029    1.83541
      76      444        2     0.31454   12.09840   14.16947    1.83298
      77      444        2     0.09830    5.59975    0.06651    8.19578
      78      444        2     0.09830    5.59970    9.93448    8.19400
      79      444        2     0.09830   15.07362    0.06611    8.19485
      80      444        2     0.09830   15.07360    9.93413    8.19307
      81      444        2     0.31454    2.85828   39.00869    9.29166
      82      444        2     0.31454    2.85604    9.40657    9.28904
      83      444        2     0.31454   12.33203   39.00810    9.29051
      84      444        2     0.31454   12.32979    9.40599    9.28789
      85      444        2     0.09830    3.84371    3.60440   11.09672
      86      444        2     0.09830    3.84423   13.46911   11.09726
      87      444        2     0.09830   13.31735    3.60311   11.09630
      88      444        2     0.09830   13.31791   13.46790   11.09684
      89      444        2     0.09830    2.73864    4.05227    9.74163
      90      444        2     0.09830    2.73965   13.92000    9.74277
      91      444        2     0.09830   12.21315    4.05199    9.74084
      92      444        2     0.09830   12.21413   13.91968    9.74202
      93      444        2     0.09830    4.96202    7.30983   12.61789
      94      444        2     0.09830    4.96330   17.17424   12.62010
      95      444        2     0.09830   14.43597    7.30922   12.61732
      96      444        2     0.09830   14.43724   17.17371   12.61949
      97      444        2     0.09830    2.70807    1.34528   11.23542
      98      444        2     0.09830    2.70574   11.21083   11.23243
      99      444        2     0.09830   12.18034    1.34448   11.23364
     100      444        2     0.09830   12.17817   11.21007   11.23080
     101      444        2     0.09830    1.62506    1.82133    9.88790
     102      444        2     0.09830    1.62440   11.69006    9.88470
     103      444        2     0.09830   11.09850    1.82162    9.88552
     104      444        2     0.09830   11.09792   11.69031    9.88250
     105      444        2     0.09830    4.00144    7.45144    7.41126
     106      444        2     0.09830    4.00234   17.31822    7.41359
     107      444        2     0.09830   13.47592    7.45068    7.41057
     108      444        2     0.09830   13.47674   17.31742    7.41289
     109      444        2     0.09830    5.74246    7.63496    7.70507
     110      444        2     0.09830    5.74328   17.50159    7.70781
     111      444        2     0.09830   15.21682    7.63454    7.70468
     112      444        2     0.09830   15.21757   17.50114    7.70736
     113      444        2     0.31454    6.54025    6.04656    2.66489
     114      444        2     0.31454    6.54126   15.91609    2.66447
     115      444        2     0.31454   16.01374    6.04615    2.66447
     116      444        2     0.31454   16.01475   15.91560    2.66397
     117      444        2     0.31454    5.62576    5.36272    3.92739
     118      444        2     0.31454    5.62639   15.23145    3.92627
     119      444        2     0.31454   15.09943    5.36207    3.92703
     120      444        2     0.31454   15.10007   15.23080    3.92582
     121      444        2     0.09830    0.19639    6.95606   10.35171
     122      444        2     0.09830    0.19719   16.82229   10.35382
     123      444        2     0.09830    9.67069    6.95699   10.35123
     124      444        2     0.09830    9.67151   16.82326   10.35334
     125      444        2     0.09830    7.25790    7.78732   13.63246
     126      444        2     0.09830    7.25868   17.65248   13.63482
     127      444        2     0.09830   16.73086    7.78617   13.63177
     128      444        2     0.09830   16.73164   17.65144   13.63409
     129      444        2     0.09830    0.62496    4.17249   14.17013
     130      444        2     0.09830    0.62528   14.03730   14.17110
     131      444        2     0.09830   10.09860    4.17167   14.16974
     132      444        2     0.09830   10.09893   14.03649   14.17074
     133      444        2     0.09830    8.41100    7.03444    0.33425
     134      444        2     0.09830    8.41118   16.90447    0.33219
     135      444        2     0.09830   17.88441    7.03425    0.33403
     136      444        2     0.09830   17.88463   16.90421    0.33199
     137      444        2     0.09830    0.71124    6.88946    0.23777
     138      444        2     0.09830    0.71146   16.75979    0.23595
     139      444        2     0.09830   10.18507    6.88885    0.23710
     140      444        2     0.09830   10.18528   16.75915    0.23527
     141      444        2     0.09830    7.60897    3.75216   10.83042
     142      444        2     0.09830    7.61275   13.62037   10.83039
     143      444        2     0.09830   17.08364    3.75188   10.82963
     144      444        2     0.09830   17.08730   13.62008   10.82969
     145      444        2     0.09830    6.22256    3.12498   11.75349
     146      444        2     0.09830    6.22441   12.99425   11.75125
     147      444        2     0.09830   15.69685    3.12509   11.75237
     148      444        2     0.09830   15.69866   12.99429   11.75029
     149      444        2     0.31454    5.61351    0.78305   11.30756
     150      444        2     0.31454    5.61388   10.65231   11.30400
     151      444        2     0.31454   15.08738    0.78319   11.30629
     152      444        2     0.31454   15.08771   10.65244   11.30288
     153      444        2     0.31454    6.83593    0.48110   12.44433
     154      444        2     0.31454    6.83501   10.34951   12.44186
     155      444        2     0.31454   16.30927    0.48118   12.44358
     156      444        2     0.31454   16.30838   10.34954   12.44123
     157      444        2     0.09830    7.13920    1.70594    9.74645
     158      444        2     0.09830    7.14097   11.57528    9.74470
     159      444        2     0.09830   16.61368    1.70572    9.74573
     160      444        2     0.09830   16.61545   11.57503    9.74407
     161      444        2     0.09830    8.51053    1.27576   10.80735
     162      444        2     0.09830    8.51151   11.14341   10.80602
     163      444        2     0.09830   17.98467    1.27524   10.80701
     164      444        2     0.09830   17.98560   11.14290   10.80581
     165      444        2     0.09830    7.29289    2.76442    5.79560
     166      444        2     0.09830    7.29306   12.63178    5.79337
     167      444        2     0.09830   16.76566    2.76279    5.79473
     168      444        2     0.09830   16.76580   12.63016    5.79249
     169      444        2     0.31454    7.36287    4.95693   13.26052
     170      444        2     0.31454    7.36274   14.82240   13.26296
     171      444        2     0.31454   16.83677    4.95672   13.25985
     172      444        2     0.31454   16.83665   14.82227   13.26227
     173      444        2     0.09830    0.86316    9.19276    6.90001
     174      444        2     0.09830    0.86313   19.05948    6.90179
     175      444        2     0.09830   10.33689    9.19118    6.90016
     176      444        2     0.09830   10.33687   19.05786    6.90194
     177      444        2     0.31454    7.59305    9.71873    5.80516
     178      444        2     0.31454    7.59288   19.58616    5.80782
     179      444        2     0.31454   17.06676    9.71832    5.80456
     180      444        2     0.31454   17.06664   19.58572    5.80715
     181      444        2     0.09830    8.57968    5.65421    3.99920
     182      444        2     0.09830    8.58024   15.52414    3.99868
     183      444        2     0.09830   18.05336    5.65408    3.99847
     184      444        2     0.09830   18.05391   15.52397    3.99790
     185      444        2     0.09830    7.47547    5.20560    5.35477
     186      444        2     0.09830    7.47648   15.07259    5.35362
     187      444        2     0.09830   16.94949    5.20488    5.35411
     188      444        2     0.09830   16.95046   15.07187    5.35290
     189      444        2     0.09830    0.22273    1.94704    2.47916
     190      444        2     0.09830    0.22402   11.81730    2.47694
     191      444        2     0.09830    9.69787    1.94829    2.47829
     192      444        2     0.09830    9.69914   11.81852    2.47608
     193      444        2     0.09830    7.44321    7.91305    3.86185
     194      444        2     0.09830    7.44096   17.78217    3.86478
     195      444        2     0.09830   16.91617    7.91266    3.86179
     196      444        2     0.09830   16.91400   17.78178    3.86460
     197      444        2     0.09830    6.36132    7.43617    5.21004
     198      444        2     0.09830    6.36070   17.30216    5.21318
     199      444        2     0.09830   15.83484    7.43521    5.21025
     200      444        2     0.09830   15.83426   17.30121    5.21321
     201      444        2     0.09830    8.73819    1.80650    7.68507
     202      444        2     0.09830    8.73905   11.67442    7.68278
     203      444        2     0.09830   18.21145    1.80589    7.68468
     204      444        2     0.09830   18.21227   11.67384    7.68239
     205      444        2     0.09830    1.00473    1.62393    7.39272
     206      444        2     0.09830    1.00556   11.49197    7.38997
     207      444        2     0.09830   10.47908    1.62272    7.39079
     208      444        2     0.09830   10.47986   11.49078    7.38810
     209      444        3     0.25189    4.64701    2.11529    3.71938
     210      444        3     0.25189    4.64780   11.98415    3.71721
     211      444        3     0.25189   14.12096    2.11439    3.71851
     212      444        3     0.25189   14.12174   11.98324    3.71634
     213      444        3    -0.09298    3.42479    1.64066    2.03186
     214      444        3    -0.09298    3.42556   11.51006    2.02952
     215      444        3    -0.09298   12.89919    1.63931    2.03080
     216      444        3    -0.09298   12.89997   11.50864    2.02848
     217      444        3     0.18052    4.52326    2.35329    1.59527
     218      444        3     0.18052    4.52400   12.22292    1.59318
     219      444        3     0.18052   13.99751    2.35235    1.59439
     220      444        3     0.18052   13.99821   12.22193    1.59230
     221      444        3     0.61580    4.05947    4.78669   14.37003
     222      444        3     0.61580    4.05984   14.65102   14.37123
     223      444        3     0.61580   13.53334    4.78558   14.36909
     224      444        3     0.61580   13.53374   14.65003   14.37033
     225      444        4     0.04907    4.37262    4.71013    0.59126
     226      444        4     0.04907    4.37306   14.58005    0.58987
     227      444        4     0.04907   13.84657    4.70918    0.59041
     228      444        4     0.04907   13.84701   14.57902    0.58899
     229      444        4    -0.30643    4.51193    3.18618    0.34036
     230      444        4    -0.30643    4.51267   13.05619    0.33849
     231      444        4    -0.30643   13.98606    3.18525    0.33949
     232      444        4    -0.30643   13.98677   13.05516    0.33761
     233      444        4    -0.30643    2.55413    6.31459    3.57203
     234      444        4    -0.30643    2.55604   16.18114    3.57299
     235      444        4    -0.30643   12.02806    6.31348    3.57121
     236      444        4    -0.30643   12.02995   16.18003    3.57212
     237      444        4     0.12371    2.70983    7.66934    4.28911
     238      444        4     0.12371    2.71100   17.53559    4.29080
     239      444        4     0.12371   12.18367    7.66831    4.28821
     240      444        4     0.12371   12.18487   17.53452    4.28984
     241      444        3     0.18052    4.56543    7.36390    9.46477
     242      444        3     0.18052    4.56572   17.23091    9.46721
     243      444        3     0.18052   14.03953    7.36357    9.46420
     244      444        3     0.18052   14.03982   17.23054    9.46658
     245      444        3    -0.09298    3.43648    6.70391    9.89480
     246      444        3    -0.09298    3.43675   16.57093    9.89704
     247      444        3    -0.09298   12.91067    6.70331    9.89411
     248      444        3    -0.09298   12.91096   16.57032    9.89631
     249      444        3     0.61580    4.20873    0.00411    6.59568
     250      444        3     0.61580    4.20925    9.87222    6.59339
     251      444        3     0.61580   13.68264    0.00322    6.59472
     252      444        3     0.61580   13.68316    9.87135    6.59245
     253      444        4     0.04907    4.60989   39.08259    7.99417
     254      444        4     0.04907    4.60792    9.48113    7.99194
     255      444        4     0.04907   14.08383   39.08203    7.99327
     256      444        4     0.04907   14.08186    9.48053    7.99110
     257      444        3     0.57738    3.36795    6.18443    2.30524
     258      444        3     0.57738    3.36849   16.05285    2.30514
     259      444        3     0.57738   12.84175    6.18345    2.30433
     260      444        3     0.57738   12.84227   16.05178    2.30417
     261      444        4     0.12371    2.83311    3.44546   10.66651
     262      444        4     0.12371    2.83353   13.31171   10.66672
     263      444        4     0.12371   12.30688    3.44481   10.66554
     264      444        4     0.12371   12.30732   13.31108   10.66584
     265      444        3     0.25189    4.64284    7.19036   11.59193
     266      444        3     0.25189    4.64378   17.05572   11.59413
     267      444        3     0.25189   14.11690    7.18972   11.59129
     268      444        3     0.25189   14.11784   17.05512   11.59349
     269      444        4    -0.30643    2.64025    1.96426   10.31431
     270      444        4    -0.30643    2.63938   11.83125   10.31220
     271      444        4    -0.30643   12.11349    1.96384   10.31268
     272      444        4    -0.30643   12.11268   11.83083   10.31069
     273      444        4    -0.30643    4.74408    7.93861    8.08335
     274      444        4    -0.30643    4.74483   17.80542    8.08579
     275      444        4    -0.30643   14.21829    7.93808    8.08275
     276      444        4    -0.30643   14.21904   17.80489    8.08516
     277      444        3     0.57738    3.65228    1.45712    9.32616
     278      444        3     0.57738    3.65168   11.32452    9.32408
     279      444        3     0.57738   13.12595    1.45656    9.32502
     280      444        3     0.57738   13.12541   11.32398    9.32302
     281      444        3     0.25189   37.80640    7.14208   11.37738
     282      444        3     0.25189   37.80718   17.00792   11.37955
     283      444        3     0.25189    9.38521    7.14285   11.37698
     284      444        3     0.25189    9.38599   17.00868   11.37919
     285      444        3    -0.09298    8.16357    7.61780   13.06482
     286      444        3    -0.09298    8.16431   17.48312   13.06717
     287      444        3    -0.09298   17.63691    7.61738   13.06452
     288      444        3    -0.09298   17.63765   17.48281   13.06684
     289      444        3     0.18052    9.26196    6.90487   13.50112
     290      444        3     0.18052    9.26270   16.76995   13.50320
     291      444        3     0.18052   18.73548    6.90495   13.50106
     292      444        3     0.18052   18.73619   16.77011   13.50314
     293      444        3     0.61580    8.79480    4.47146    0.72632
     294      444        3     0.61580    8.79520   14.34177    0.72509
     295      444        3     0.61580   18.26867    4.47136    0.72589
     296      444        3     0.61580   18.26907   14.34156    0.72463
     297      444        4     0.04907    9.11125    4.54803   14.50502
     298      444        4     0.04907    9.11169   14.41286   14.50640
     299      444        4     0.04907   18.58508    4.54789   14.50453
     300      444        4     0.04907   18.58552   14.41284   14.50595
     301      444        4    -0.30643    9.25070    6.07195   14.75600
     302      444        4    -0.30643    9.25145   15.93669   14.75787
     303      444        4    -0.30643   18.72427    6.07180   14.75576
     304      444        4    -0.30643   18.72497   15.93662   14.75763
     305      444        4    -0.30643    7.29206    2.94390   11.52455
     306      444        4    -0.30643    7.29398   12.81204   11.52359
     307      444        4    -0.30643   16.76638    2.94375   11.52377
     308      444        4    -0.30643   16.76826   12.81187   11.52292
     309      444        4     0.12371    7.44738    1.58907   10.80753
     310      444        4     0.12371    7.44855   11.45751   10.80584
     311      444        4     0.12371   16.92156    1.58883   10.80689
     312      444        4     0.12371   16.92276   11.45726   10.80533
     313      444        3     0.18052    9.30168    1.89384    5.63145
     314      444        3     0.18052    9.30197   11.76154    5.62903
     315      444        3     0.18052   18.77513    1.89367    5.63118
     316      444        3     0.18052   18.77542   11.76139    5.62879
     317      444        3    -0.09298    8.17278    2.55409    5.20166
     318      444        3    -0.09298    8.17303   12.42179    5.19942
     319      444        3    -0.09298   17.64589    2.55306    5.20108
     320      444        3    -0.09298   17.64614   12.42074    5.19885
     321      444        3     0.61580    8.94639    9.25388    8.50069
     322      444        3     0.61580    8.94691   19.12042    8.50295
     323      444        3     0.61580   18.42033    9.25331    8.50008
     324      444        3     0.61580   18.42085   19.11985    8.50232
     325      444        4     0.04907   18.81881    9.64425    7.10147
     326      444        4     0.04907   18.81895   19.51103    7.10364
     327      444        4     0.04907    9.34509    9.64462    7.10208
     328      444        4     0.04907    9.34519   19.51140    7.10428
     329      444        3     0.57738    8.10600    3.07384   12.79128
     330      444        3     0.57738    8.10655   12.94014   12.79140
     331      444        3     0.57738   17.58002    3.07364   12.79070
     332      444        3     0.57738   17.58057   12.94000   12.79092
     333      444        4     0.12371    7.56929    5.81270    4.43004
     334      444        4     0.12371    7.56973   15.68112    4.42980
     335      444        4     0.12371   17.04297    5.81225    4.42950
     336      444        4     0.12371   17.04345   15.68063    4.42920
     337      444        3     0.25189   37.79969    2.06704    3.50520
     338      444        3     0.25189   37.80062   11.93637    3.50297
     339      444        3     0.25189    9.37888    2.06774    3.50435
     340      444        3     0.25189    9.37981   11.93708    3.50212
     341      444        4    -0.30643    7.37622    7.29375    4.78284
     342      444        4    -0.30643    7.37541   17.16144    4.78489
     343      444        4    -0.30643   16.84963    7.29316    4.78269
     344      444        4    -0.30643   16.84886   17.16086    4.78462
     345      444        4    -0.30643    9.48054    1.31919    7.01281
     346      444        4    -0.30643    9.48128   11.18707    7.01036
     347      444        4    -0.30643   18.95403    1.31884    7.01241
     348      444        4    -0.30643   18.95473   11.18677    7.01003
     349      444        3     0.57738    8.38883    7.80085    5.77042
     350      444        3     0.57738    8.38825   17.66810    5.77247
     351      444        3     0.57738   17.86243    7.80035    5.77009
     352      444        3     0.57738   17.86189   17.66761    5.77205
     353      444        5    -0.64634    1.82841    3.88234   11.63074
     354      444        5    -0.64634    1.82914   13.74803   11.63155
     355      444        5    -0.64634   11.30195    3.88188   11.62944
     356      444        5    -0.64634   11.30269   13.74757   11.63032
     357      444        6    -0.44443    3.48777    6.58889   11.23150
     358      444        6    -0.44443    3.48841   16.45484   11.23361
     359      444        6    -0.44443   12.96195    6.58809   11.23077
     360      444        6    -0.44443   12.96262   16.45404   11.23286
     361      444        6    -0.44443    3.50283    1.50178    3.36427
     362      444        6    -0.44443    3.50365   11.37066    3.36188
     363      444        6    -0.44443   12.97707    1.50042    3.36321
     364      444        6    -0.44443   12.97789   11.36929    3.36086
     365      444        6    -0.44443    5.29436    2.64210    2.66377
     366      444        6    -0.44443    5.29507   12.51142    2.66178
     367      444        6    -0.44443   14.76830    2.64145    2.66302
     368      444        6    -0.44443   14.76897   12.51074    2.66103
     369      444        5    -0.64634    1.88783    8.71162    3.67433
     370      444        5    -0.64634    1.88792   18.57755    3.67701
     371      444        5    -0.64634   11.36154    8.71043    3.67345
     372      444        5    -0.64634   11.36168   18.57640    3.67608
     373      444        6    -0.44443    5.32376    7.68299   10.53335
     374      444        6    -0.44443    5.32455   17.54893   10.53577
     375      444        6    -0.44443   14.79778    7.68261   10.53284
     376      444        6    -0.44443   14.79853   17.54860   10.53519
     377      444        6    -0.43464    3.35128    5.01547    1.60924
     378      444        6    -0.43464    3.35140   14.88473    1.60770
     379      444        6    -0.43464   12.82519    5.01444    1.60837
     380      444        6    -0.43464   12.82529   14.88362    1.60681
     381      444        6    -0.43464    3.63242    0.15011    8.95412
     382      444        6    -0.43464    3.63215   10.01763    8.95171
     383      444        6    -0.43464   13.10624    0.14951    8.95310
     384      444        6    -0.43464   13.10597   10.01704    8.95075
     385      444        5    -0.64634    6.56423    5.37579    3.46623
     386      444        5    -0.64634    6.56497   15.24482    3.46542
     387      444        5    -0.64634   16.03787    5.37529    3.46578
     388      444        5    -0.64634   16.03861   15.24429    3.46487
     389      444        6    -0.44443    8.22393    2.66934    3.86499
     390      444        6    -0.44443    8.22456   12.53807    3.86288
     391      444        6    -0.44443   17.69776    2.66910    3.86451
     392      444        6    -0.44443   17.69839   12.53781    3.86243
     393      444        6    -0.44443    8.24129    7.75669   11.73240
     394      444        6    -0.44443    8.24211   17.62247   11.73479
     395      444        6    -0.44443   17.71523    7.75685   11.73222
     396      444        6    -0.44443   17.71605   17.62272   11.73455
     397      444        6    -0.44443    0.55828    6.61599   12.43311
     398      444        6    -0.44443    0.55898   16.48136   12.43510
     399      444        6    -0.44443   10.03268    6.61582   12.43245
     400      444        6    -0.44443   10.03339   16.48119   12.43444
     401      444        5    -0.64634    6.62518    0.54700   11.42252
     402      444        5    -0.64634    6.62528   10.41574   11.41984
     403      444        5    -0.64634   16.09894    0.54698   11.42168
     404      444        5    -0.64634   16.09908   10.41569   11.41912
     405      444        6    -0.44443    0.58563    1.57572    4.56383
     406      444        6    -0.44443    0.58641   11.44442    4.56145
     407      444        6    -0.44443   10.05986    1.57485    4.56274