LAMMPS (30 Nov 2020)
OMP_NUM_THREADS environment is not set. Defaulting to 1 thread. (src/lammps-master/src/comm.cpp:94)
  using 1 OpenMP thread(s) per MPI task
# Compute elastic constant tensor for a crystal
#
# Written by Aidan Thompson (Sandia, athomps@sandia.gov)
#
#  This script uses the following three include files.
#
#   init.mod      (must be modified for different crystal structures)
# 	       	  Define units, deformation parameters and initial
#		  configuration of the atoms and simulation cell.
#
#
#   potential.mod    (must be modified for different pair styles)
# 		     Define pair style and other attributes
#		     not stored in restart file
#
#
#   displace.mod    (displace.mod should not need to be modified)
# 		    Perform positive and negative box displacements
# 		    in direction ${dir} and size ${up}.
# 		    It uses the resultant changes
#		    in stress to compute one
# 		    row of the elastic stiffness tensor
#
#		    Inputs variables:
#		    	   dir = the Voigt deformation component
#		    		    (1,2,3,4,5,6)
#		    Global constants:
#       	    	   up = the deformation magnitude (strain units)
#       		   cfac = conversion from LAMMPS pressure units to
#               	   output units for elastic constants
#
#
#  To run this on a different system, it should only be necessary to
#  modify the files init.mod and potential.mod. In order to calculate
#  the elastic constants correctly, care must be taken to specify
#  the correct units in init.mod (units, cfac and cunits). It is also
#  important to verify that the minimization of energy w.r.t atom
#  positions in the deformed cell is fully converged.
#  One indication of this is that the elastic constants are insensitive
#  to the choice of the variable ${up} in init.mod. Another is to check
#  the final max and two-norm forces reported in the log file. If you know
#  that minimization is not required, you can set maxiter = 0.0 in
#  init.mod.
#

include init.mod

# real units, elastic constants in GPa
variable up equal 1.0e-2
variable atomjiggle equal 1.0e-5
units		real
variable cfac equal 1.01325e-4
variable cunits string GPa
atom_style      full

# Define minimization parameters
variable etol equal 1.0e-10
variable ftol equal 1.0e-10
variable maxiter equal 100000
variable maxeval equal 10000000
variable dmax equal 1.0e-3
bond_style      harmonic
angle_style     hybrid cosine/periodic fourier
dihedral_style  harmonic
improper_style  fourier
box tilt large
 read_data       data.MOF
Reading data file ...
  triclinic box = (0.0000000 0.0000000 0.0000000) to (37.895777 39.469369 30.158718) with tilt (0.0020710000 0.0037010000 -1.2416140)
  2 by 2 by 2 MPI processor grid
  reading atoms ...
  3712 atoms
  scanning bonds ...
  4 = max bonds/atom
  scanning angles ...
  6 = max angles/atom
  scanning dihedrals ...
  21 = max dihedrals/atom
  scanning impropers ...
  2 = max impropers/atom
  reading bonds ...
  4096 bonds
  reading angles ...
  7808 angles
  reading dihedrals ...
  9856 dihedrals
  reading impropers ...
  3072 impropers
Finding 1-2 1-3 1-4 neighbors ...
  special bond factors lj:    0        0        0       
  special bond factors coul:  0        0        0       
     4 = max # of 1-2 neighbors
     8 = max # of 1-3 neighbors
    21 = max # of 1-4 neighbors
    25 = max # of special neighbors
  special bonds CPU = 0.003 seconds
  read_data CPU = 0.041 seconds
change_box all triclinic
Changing box ...
  triclinic box = (0.0000000 0.0000000 0.0000000) to (37.895777 39.469369 30.158718) with tilt (0.0020710000 0.0037010000 -1.2416140)
include potential.mod
pair_style      lj/cut 12.5
bond_style      harmonic
angle_style     hybrid cosine/periodic fourier
dihedral_style  harmonic
improper_style  fourier


special_bonds   lj 0.0 0.0 1.0
Finding 1-2 1-3 1-4 neighbors ...
  special bond factors lj:    0        0        1       
  special bond factors coul:  0        0        0       
     4 = max # of 1-2 neighbors
     8 = max # of 1-3 neighbors
    21 = max # of 1-4 neighbors
    25 = max # of special neighbors
  special bonds CPU = 0.001 seconds
pair_modify     tail yes mix arithmetic
include data.pair
bond_coeff     1      154.048673        1.928536  # Zn3f2 N_R
bond_coeff     2      122.127512        2.014866  # Zn3f2 O_2
bond_coeff     3      153.811316        1.929528  # Zn3f2 N_3
bond_coeff     4      527.945261        1.044419  # H_ N_3
bond_coeff     5      357.440381        1.081418  # H_ C_R
bond_coeff     6      331.069389        1.109401  # H_ C_3
bond_coeff     7      529.459447        1.043423  # H_ N_R
bond_coeff     8      663.718927        1.345073  # C_R N_R
bond_coeff     9      462.655054        1.379256  # C_R C_R
bond_coeff    10      369.943935        1.486000  # C_R C_3
bond_coeff    11      714.557442        1.269010  # C_R O_2
bond_coeff    12      646.680887        1.311940  # C_R O_R
bond_coeff    13      349.795899        1.514000  # C_3 C_3
bond_coeff    14      529.724731        1.450075  # C_3 N_R
bond_coeff    15      528.634538        1.451071  # C_3 N_3
angle_coeff     1                      fourier      183.483089        0.343737        0.374972        0.281246 # N_R Zn3f2 N_R
angle_coeff     2                      fourier      155.087435        0.343737        0.374972        0.281246 # N_R Zn3f2 O_2
angle_coeff     3                      fourier      183.341639        0.343737        0.374972        0.281246 # N_R Zn3f2 N_3
angle_coeff     4                      fourier      154.973760        0.343737        0.374972        0.281246 # O_2 Zn3f2 N_3
angle_coeff     5              cosine/periodic      159.573934              -1               3 # H_ C_R N_R
angle_coeff     6              cosine/periodic      424.885146              -1               3 # N_R C_R N_R
angle_coeff     7              cosine/periodic      114.578032              -1               3 # H_ C_R C_R
angle_coeff     8              cosine/periodic      307.398705              -1               3 # C_R C_R N_R
angle_coeff     9              cosine/periodic      198.274298              -1               3 # C_R C_R C_3
angle_coeff    10              cosine/periodic      273.097456              -1               3 # C_3 C_R N_R
angle_coeff    11              cosine/periodic      393.120049              -1               3 # O_2 C_R O_R
angle_coeff    12              cosine/periodic      266.629989              -1               3 # O_2 C_R C_3
angle_coeff    13              cosine/periodic      255.317313              -1               3 # O_R C_R C_3
angle_coeff    14                      fourier      117.318683        0.343737        0.374972        0.281246 # H_ C_3 C_3
angle_coeff    15                      fourier      170.007371        0.343737        0.374972        0.281246 # H_ C_3 N_R
angle_coeff    16                      fourier      121.777217        0.343737        0.374972        0.281246 # H_ C_3 C_R
angle_coeff    17                      fourier      303.594562        0.343737        0.374972        0.281246 # C_3 C_3 N_R
angle_coeff    18                      fourier      220.229931        0.343737        0.374972        0.281246 # C_3 C_3 C_R
angle_coeff    19                      fourier      312.548166        0.343737        0.374972        0.281246 # N_R C_3 C_R
angle_coeff    20                      fourier       75.498766        0.343737        0.374972        0.281246 # H_ C_3 H_
angle_coeff    21                      fourier      169.780468        0.343737        0.374972        0.281246 # H_ C_3 N_3
angle_coeff    22                      fourier      303.297032        0.343737        0.374972        0.281246 # C_3 C_3 N_3
angle_coeff    23              cosine/periodic      398.603153              -1               3 # N_R C_R O_R
angle_coeff    24                      fourier       51.536168        0.317506        0.313225        0.272502 # Zn3f2 N_3 H_
angle_coeff    25                      fourier      108.360206        0.317506        0.313225        0.272502 # Zn3f2 N_3 C_3
angle_coeff    26                      fourier       97.017167        0.317506        0.313225        0.272502 # H_ N_3 H_
angle_coeff    27                      fourier      144.695053        0.317506        0.313225        0.272502 # H_ N_3 C_3
angle_coeff    28              cosine/periodic       87.429320              -1               3 # Zn3f2 N_R C_R
angle_coeff    29              cosine/periodic      240.001032              -1               3 # C_R N_R C_R
angle_coeff    30              cosine/periodic      108.417222              -1               3 # H_ N_R C_3
angle_coeff    31              cosine/periodic      125.071223              -1               3 # H_ N_R C_R
angle_coeff    32              cosine/periodic      213.564697              -1               3 # C_3 N_R C_R
angle_coeff    33              cosine/periodic       84.412329              -1               3 # Zn3f2 O_2 C_R
dihedral_coeff     1        1.497136              -1               2 # H_ C_R N_R Zn3f2
dihedral_coeff     2        0.083333               1               3 # C_R C_R C_3 C_3
dihedral_coeff     3        2.245703              -1               2 # O_R C_R O_2 Zn3f2
dihedral_coeff     4        0.066219               1               3 # H_ C_3 C_3 C_R
dihedral_coeff     5        0.416667              -1               2 # H_ C_3 N_R H_
dihedral_coeff     6        0.030516               1               3 # H_ C_3 N_3 Zn3f2
improper_coeff     1        2.000000        1.000000       -1.000000        0.000000               0 # H_ C_R N_R N_R
pair_coeff 1 1 0.124 2.461553
pair_coeff 1 2 0.07386474125047755 2.5163434999999996
pair_coeff 1 3 0.11410521460476729 2.946202
pair_coeff 1 4 0.11410521460476729 2.946202
pair_coeff 1 5 0.09249864863877742 2.861121
pair_coeff 1 6 0.09249864863877742 2.861121
pair_coeff 1 7 0.08625543461139129 2.7898495
pair_coeff 1 8 0.08625543461139129 2.7898495
pair_coeff 2 2 0.044 2.571134
pair_coeff 2 3 0.0679705818718657 3.0009924999999997
pair_coeff 2 4 0.0679705818718657 3.0009924999999997
pair_coeff 2 5 0.05509990925582364 2.9159115
pair_coeff 2 6 0.05509990925582364 2.9159115
pair_coeff 2 7 0.05138093031466051 2.84464
pair_coeff 2 8 0.05138093031466051 2.84464
pair_coeff 3 3 0.105 3.430851
pair_coeff 3 4 0.105 3.430851
pair_coeff 3 5 0.08511756575466665 3.34577
pair_coeff 3 6 0.08511756575466665 3.34577
pair_coeff 3 7 0.07937253933193772 3.2744985
pair_coeff 3 8 0.07937253933193772 3.2744985
pair_coeff 4 4 0.105 3.430851
pair_coeff 4 5 0.08511756575466665 3.34577
pair_coeff 4 6 0.08511756575466665 3.34577
pair_coeff 4 7 0.07937253933193772 3.2744985
pair_coeff 4 8 0.07937253933193772 3.2744985
pair_coeff 5 5 0.069 3.2606889999999997
pair_coeff 5 6 0.069 3.2606889999999997
pair_coeff 5 7 0.06434283176858166 3.1894175
pair_coeff 5 8 0.06434283176858166 3.1894175
pair_coeff 6 6 0.069 3.2606889999999997
pair_coeff 6 7 0.06434283176858166 3.1894175
pair_coeff 6 8 0.06434283176858166 3.1894175
pair_coeff 7 7 0.06 3.118146
pair_coeff 7 8 0.06 3.118146
pair_coeff 8 8 0.06 3.118146

# Setup neighbor style
neighbor 1.0 nsq
neigh_modify once no every 1 delay 0 check yes

# Setup minimization style
min_style	     cg
min_modify	     dmax ${dmax} line quadratic
min_modify	     dmax 0.001 line quadratic

# Setup output
thermo		1
thermo_style custom step temp pe press pxx pyy pzz pxy pxz pyz lx ly lz vol
thermo_modify norm no

# Compute initial state
fix 3 all box/relax  aniso 0.0
minimize ${etol} ${ftol} ${maxiter} ${maxeval}
minimize 1e-10 ${ftol} ${maxiter} ${maxeval}
minimize 1e-10 1e-10 ${maxiter} ${maxeval}
minimize 1e-10 1e-10 100000 ${maxeval}
minimize 1e-10 1e-10 100000 10000000
Neighbor list info ...
  update every 1 steps, delay 0 steps, check yes
  max neighbors/atom: 2000, page size: 100000
  master list distance cutoff = 13.5
  ghost atom cutoff = 13.5
  1 neighbor lists, perpetual/occasional/extra = 1 0 0
  (1) pair lj/cut, perpetual
      attributes: half, newton on
      pair build: half/nsq/newton
      stencil: none
      bin: none
WARNING: Inconsistent image flags (src/lammps-master/src/domain.cpp:812)
Per MPI rank memory allocation (min/avg/max) = 18.81 | 19.00 | 19.19 Mbytes
Step Temp PotEng Press Pxx Pyy Pzz Pxy Pxz Pyz Lx Ly Lz Volume 
       0            0    10292.151   -153.72591   -43.846719   -367.53835   -49.792662  0.096632917   -5.5386312   -3.2549921    37.895777    39.469369    30.158718     45109.07 
       1            0    10292.132   -23.220486    47.551534   -142.43169    25.218697    0.1109451   -5.5497569    4.0374929    37.895325    39.465422    30.158309     45103.41 
       2            0     10292.13    2.2506987    13.534359    3.0718631   -9.8541256   0.11874593   -5.5512137    13.588722    37.896279    39.462444    30.158712    45101.745 
       3            0     10292.13  -0.33689463    -2.827563  -0.25175751    2.0686366   0.12081883   -5.5540337    12.453585    37.896521    39.462461    30.158584     45101.86 
       4            0    10292.127   -58.517045   -52.091028   -41.937209   -81.522898   0.44219481   -7.8791564    21.856319    37.897124    39.461996    30.159351    45103.192 
       5            0    10292.124  -0.41758378    2.4959522   -5.0687244    1.3200208   0.53705555    -8.544649     20.39914    37.896603    39.461281    30.158706    45100.792 
       6            0    10292.124   0.86654312   -1.6979248    5.8982406   -1.6006865    0.5354856   -8.5505216     21.17235    37.896699    39.461043    30.158738    45100.682 
       7            0    10292.124   -7.6044189   -52.520125   -9.5873677    39.294236    0.3724615   -8.5367539    18.669286    37.897437    39.461008     30.15833     45100.91 
       8            0    10292.121   -3.6400101   -3.1522841   -2.9962629   -4.7714833  -0.70188521    -8.463725    33.152249    37.896698    39.459696    30.158979    45099.502 
       9            0    10292.121    2.6177141    2.6828316    1.4766458    3.6936648  -0.70366558   -8.4608791    32.871811    37.896639    39.459637    30.158912    45099.264 
Loop time of 0.172601 on 8 procs for 9 steps with 3712 atoms

94.4% CPU use with 8 MPI tasks x 1 OpenMP threads

Minimization stats:
  Stopping criterion = energy tolerance
  Energy initial, next-to-last, final = 
      10292.1505727199   10292.1206165975   10292.1206163107
  Force two-norm initial, final = 245.72151 4.8126546
  Force max component initial, final = 241.79228 2.4294056
  Final line search alpha, max atom move = 3.2602438e-05 7.9204547e-05
  Iterations, force evaluations = 9 17

MPI task timing breakdown:
Section |  min time  |  avg time  |  max time  |%varavg| %total
---------------------------------------------------------------
Pair    | 0.059424   | 0.085358   | 0.11315    |   6.2 | 49.45
Bond    | 0.0038476  | 0.0039766  | 0.0041008  |   0.1 |  2.30
Neigh   | 0          | 0          | 0          |   0.0 |  0.00
Comm    | 0.027488   | 0.055389   | 0.081277   |   7.7 | 32.09
Output  | 0.00028086 | 0.00037825 | 0.00098467 |   0.0 |  0.22
Modify  | 0          | 0          | 0          |   0.0 |  0.00
Other   |            | 0.0275     |            |       | 15.93

Nlocal:        464.000 ave         464 max         464 min
Histogram: 8 0 0 0 0 0 0 0 0 0
Nghost:        7143.50 ave        7145 max        7142 min
Histogram: 4 0 0 0 0 0 0 0 0 4
Neighs:        195651.0 ave      248100 max      143194 min
Histogram: 1 1 1 1 0 0 1 1 1 1

Total # of neighbors = 1565209
Ave neighs/atom = 421.66191
Ave special neighs/atom = 13.034483
Neighbor list builds = 0
Dangerous builds = 0

variable tmp equal pxx
variable pxx0 equal ${tmp}
variable pxx0 equal 2.68283157923556
variable tmp equal pyy
variable pyy0 equal ${tmp}
variable pyy0 equal 1.47664583226622
variable tmp equal pzz
variable pzz0 equal ${tmp}
variable pzz0 equal 3.69366484528297
variable tmp equal pyz
variable pyz0 equal ${tmp}
variable pyz0 equal 32.8718105796933
variable tmp equal pxz
variable pxz0 equal ${tmp}
variable pxz0 equal -8.46087913498178
variable tmp equal pxy
variable pxy0 equal ${tmp}
variable pxy0 equal -0.703665583393466

variable tmp equal lx
variable lx0 equal ${tmp}
variable lx0 equal 37.8966394303209
variable tmp equal ly
variable ly0 equal ${tmp}
variable ly0 equal 39.4596368713245
variable tmp equal lz
variable lz0 equal ${tmp}
variable lz0 equal 30.1589120660827

# These formulas define the derivatives w.r.t. strain components
# Constants uses $, variables use v_
variable d1 equal -(v_pxx1-${pxx0})/(v_delta/v_len0)*${cfac}
variable d1 equal -(v_pxx1-2.68283157923556)/(v_delta/v_len0)*${cfac}
variable d1 equal -(v_pxx1-2.68283157923556)/(v_delta/v_len0)*0.000101325
variable d2 equal -(v_pyy1-${pyy0})/(v_delta/v_len0)*${cfac}
variable d2 equal -(v_pyy1-1.47664583226622)/(v_delta/v_len0)*${cfac}
variable d2 equal -(v_pyy1-1.47664583226622)/(v_delta/v_len0)*0.000101325
variable d3 equal -(v_pzz1-${pzz0})/(v_delta/v_len0)*${cfac}
variable d3 equal -(v_pzz1-3.69366484528297)/(v_delta/v_len0)*${cfac}
variable d3 equal -(v_pzz1-3.69366484528297)/(v_delta/v_len0)*0.000101325
variable d4 equal -(v_pyz1-${pyz0})/(v_delta/v_len0)*${cfac}
variable d4 equal -(v_pyz1-32.8718105796933)/(v_delta/v_len0)*${cfac}
variable d4 equal -(v_pyz1-32.8718105796933)/(v_delta/v_len0)*0.000101325
variable d5 equal -(v_pxz1-${pxz0})/(v_delta/v_len0)*${cfac}
variable d5 equal -(v_pxz1--8.46087913498178)/(v_delta/v_len0)*${cfac}
variable d5 equal -(v_pxz1--8.46087913498178)/(v_delta/v_len0)*0.000101325
variable d6 equal -(v_pxy1-${pxy0})/(v_delta/v_len0)*${cfac}
variable d6 equal -(v_pxy1--0.703665583393466)/(v_delta/v_len0)*${cfac}
variable d6 equal -(v_pxy1--0.703665583393466)/(v_delta/v_len0)*0.000101325

displace_atoms all random ${atomjiggle} ${atomjiggle} ${atomjiggle} 87287 units box
displace_atoms all random 1e-05 ${atomjiggle} ${atomjiggle} 87287 units box
displace_atoms all random 1e-05 1e-05 ${atomjiggle} 87287 units box
displace_atoms all random 1e-05 1e-05 1e-05 87287 units box
Displacing atoms ...

# Write restart
unfix 3
write_restart restart.equil
System init for write_restart ...

# uxx Perturbation

variable dir equal 1
include displace.mod
# NOTE: This script should not need to be
# modified. See in.elastic for more info.
#
# Find which reference length to use

if "${dir} == 1" then    "variable len0 equal ${lx0}"
variable len0 equal ${lx0}
variable len0 equal 37.8966394303209
if "${dir} == 2" then    "variable len0 equal ${ly0}"
if "${dir} == 3" then    "variable len0 equal ${lz0}"
if "${dir} == 4" then    "variable len0 equal ${lz0}"
if "${dir} == 5" then    "variable len0 equal ${lz0}"
if "${dir} == 6" then    "variable len0 equal ${ly0}"

# Reset box and simulation parameters

clear
OMP_NUM_THREADS environment is not set. Defaulting to 1 thread. (src/lammps-master/src/comm.cpp:94)
  using 1 OpenMP thread(s) per MPI task
box tilt large
read_restart restart.equil
Reading restart file ...
  restart file = 30 Nov 2020, LAMMPS = 30 Nov 2020
  restoring atom style full from restart
  triclinic box = (-0.00043121516 0.0048660643 -9.7033041e-05) to (37.896208 39.464503 30.158815) with tilt (0.0020704893 0.0037010238 -1.2416220)
  2 by 2 by 2 MPI processor grid
  restoring pair style lj/cut from restart
  restoring bond style harmonic from restart
  restoring angle style hybrid from restart
  restoring dihedral style harmonic from restart
  restoring improper style fourier from restart
  3712 atoms
  4096 bonds
  7808 angles
  9856 dihedrals
  3072 impropers
Finding 1-2 1-3 1-4 neighbors ...
  special bond factors lj:    0        0        1       
  special bond factors coul:  0        0        0       
     4 = max # of 1-2 neighbors
     8 = max # of 1-3 neighbors
    21 = max # of 1-4 neighbors
    25 = max # of special neighbors
  special bonds CPU = 0.001 seconds
  read_restart CPU = 0.006 seconds
include potential.mod
pair_style      lj/cut 12.5
bond_style      harmonic
angle_style     hybrid cosine/periodic fourier
dihedral_style  harmonic
improper_style  fourier


special_bonds   lj 0.0 0.0 1.0
pair_modify     tail yes mix arithmetic
include data.pair
bond_coeff     1      154.048673        1.928536  # Zn3f2 N_R
bond_coeff     2      122.127512        2.014866  # Zn3f2 O_2
bond_coeff     3      153.811316        1.929528  # Zn3f2 N_3
bond_coeff     4      527.945261        1.044419  # H_ N_3
bond_coeff     5      357.440381        1.081418  # H_ C_R
bond_coeff     6      331.069389        1.109401  # H_ C_3
bond_coeff     7      529.459447        1.043423  # H_ N_R
bond_coeff     8      663.718927        1.345073  # C_R N_R
bond_coeff     9      462.655054        1.379256  # C_R C_R
bond_coeff    10      369.943935        1.486000  # C_R C_3
bond_coeff    11      714.557442        1.269010  # C_R O_2
bond_coeff    12      646.680887        1.311940  # C_R O_R
bond_coeff    13      349.795899        1.514000  # C_3 C_3
bond_coeff    14      529.724731        1.450075  # C_3 N_R
bond_coeff    15      528.634538        1.451071  # C_3 N_3
angle_coeff     1                      fourier      183.483089        0.343737        0.374972        0.281246 # N_R Zn3f2 N_R
angle_coeff     2                      fourier      155.087435        0.343737        0.374972        0.281246 # N_R Zn3f2 O_2
angle_coeff     3                      fourier      183.341639        0.343737        0.374972        0.281246 # N_R Zn3f2 N_3
angle_coeff     4                      fourier      154.973760        0.343737        0.374972        0.281246 # O_2 Zn3f2 N_3
angle_coeff     5              cosine/periodic      159.573934              -1               3 # H_ C_R N_R
angle_coeff     6              cosine/periodic      424.885146              -1               3 # N_R C_R N_R
angle_coeff     7              cosine/periodic      114.578032              -1               3 # H_ C_R C_R
angle_coeff     8              cosine/periodic      307.398705              -1               3 # C_R C_R N_R
angle_coeff     9              cosine/periodic      198.274298              -1               3 # C_R C_R C_3
angle_coeff    10              cosine/periodic      273.097456              -1               3 # C_3 C_R N_R
angle_coeff    11              cosine/periodic      393.120049              -1               3 # O_2 C_R O_R
angle_coeff    12              cosine/periodic      266.629989              -1               3 # O_2 C_R C_3
angle_coeff    13              cosine/periodic      255.317313              -1               3 # O_R C_R C_3
angle_coeff    14                      fourier      117.318683        0.343737        0.374972        0.281246 # H_ C_3 C_3
angle_coeff    15                      fourier      170.007371        0.343737        0.374972        0.281246 # H_ C_3 N_R
angle_coeff    16                      fourier      121.777217        0.343737        0.374972        0.281246 # H_ C_3 C_R
angle_coeff    17                      fourier      303.594562        0.343737        0.374972        0.281246 # C_3 C_3 N_R
angle_coeff    18                      fourier      220.229931        0.343737        0.374972        0.281246 # C_3 C_3 C_R
angle_coeff    19                      fourier      312.548166        0.343737        0.374972        0.281246 # N_R C_3 C_R
angle_coeff    20                      fourier       75.498766        0.343737        0.374972        0.281246 # H_ C_3 H_
angle_coeff    21                      fourier      169.780468        0.343737        0.374972        0.281246 # H_ C_3 N_3
angle_coeff    22                      fourier      303.297032        0.343737        0.374972        0.281246 # C_3 C_3 N_3
angle_coeff    23              cosine/periodic      398.603153              -1               3 # N_R C_R O_R
angle_coeff    24                      fourier       51.536168        0.317506        0.313225        0.272502 # Zn3f2 N_3 H_
angle_coeff    25                      fourier      108.360206        0.317506        0.313225        0.272502 # Zn3f2 N_3 C_3
angle_coeff    26                      fourier       97.017167        0.317506        0.313225        0.272502 # H_ N_3 H_
angle_coeff    27                      fourier      144.695053        0.317506        0.313225        0.272502 # H_ N_3 C_3
angle_coeff    28              cosine/periodic       87.429320              -1               3 # Zn3f2 N_R C_R
angle_coeff    29              cosine/periodic      240.001032              -1               3 # C_R N_R C_R
angle_coeff    30              cosine/periodic      108.417222              -1               3 # H_ N_R C_3
angle_coeff    31              cosine/periodic      125.071223              -1               3 # H_ N_R C_R
angle_coeff    32              cosine/periodic      213.564697              -1               3 # C_3 N_R C_R
angle_coeff    33              cosine/periodic       84.412329              -1               3 # Zn3f2 O_2 C_R
dihedral_coeff     1        1.497136              -1               2 # H_ C_R N_R Zn3f2
dihedral_coeff     2        0.083333               1               3 # C_R C_R C_3 C_3
dihedral_coeff     3        2.245703              -1               2 # O_R C_R O_2 Zn3f2
dihedral_coeff     4        0.066219               1               3 # H_ C_3 C_3 C_R
dihedral_coeff     5        0.416667              -1               2 # H_ C_3 N_R H_
dihedral_coeff     6        0.030516               1               3 # H_ C_3 N_3 Zn3f2
improper_coeff     1        2.000000        1.000000       -1.000000        0.000000               0 # H_ C_R N_R N_R
pair_coeff 1 1 0.124 2.461553
pair_coeff 1 2 0.07386474125047755 2.5163434999999996
pair_coeff 1 3 0.11410521460476729 2.946202
pair_coeff 1 4 0.11410521460476729 2.946202
pair_coeff 1 5 0.09249864863877742 2.861121
pair_coeff 1 6 0.09249864863877742 2.861121
pair_coeff 1 7 0.08625543461139129 2.7898495
pair_coeff 1 8 0.08625543461139129 2.7898495
pair_coeff 2 2 0.044 2.571134
pair_coeff 2 3 0.0679705818718657 3.0009924999999997
pair_coeff 2 4 0.0679705818718657 3.0009924999999997
pair_coeff 2 5 0.05509990925582364 2.9159115
pair_coeff 2 6 0.05509990925582364 2.9159115
pair_coeff 2 7 0.05138093031466051 2.84464
pair_coeff 2 8 0.05138093031466051 2.84464
pair_coeff 3 3 0.105 3.430851
pair_coeff 3 4 0.105 3.430851
pair_coeff 3 5 0.08511756575466665 3.34577
pair_coeff 3 6 0.08511756575466665 3.34577
pair_coeff 3 7 0.07937253933193772 3.2744985
pair_coeff 3 8 0.07937253933193772 3.2744985
pair_coeff 4 4 0.105 3.430851
pair_coeff 4 5 0.08511756575466665 3.34577
pair_coeff 4 6 0.08511756575466665 3.34577
pair_coeff 4 7 0.07937253933193772 3.2744985
pair_coeff 4 8 0.07937253933193772 3.2744985
pair_coeff 5 5 0.069 3.2606889999999997
pair_coeff 5 6 0.069 3.2606889999999997
pair_coeff 5 7 0.06434283176858166 3.1894175
pair_coeff 5 8 0.06434283176858166 3.1894175
pair_coeff 6 6 0.069 3.2606889999999997
pair_coeff 6 7 0.06434283176858166 3.1894175
pair_coeff 6 8 0.06434283176858166 3.1894175
pair_coeff 7 7 0.06 3.118146
pair_coeff 7 8 0.06 3.118146
pair_coeff 8 8 0.06 3.118146

# Setup neighbor style
neighbor 1.0 nsq
neigh_modify once no every 1 delay 0 check yes

# Setup minimization style
min_style	     cg
min_modify	     dmax ${dmax} line quadratic
min_modify	     dmax 0.001 line quadratic

# Setup output
thermo		1
thermo_style custom step temp pe press pxx pyy pzz pxy pxz pyz lx ly lz vol
thermo_modify norm no

# Negative deformation

variable delta equal -${up}*${len0}
variable delta equal -0.01*${len0}
variable delta equal -0.01*37.8966394303209
variable deltaxy equal -${up}*xy
variable deltaxy equal -0.01*xy
variable deltaxz equal -${up}*xz
variable deltaxz equal -0.01*xz
variable deltayz equal -${up}*yz
variable deltayz equal -0.01*yz
if "${dir} == 1" then    "change_box all x delta 0 ${delta} xy delta ${deltaxy} xz delta ${deltaxz} remap units box"
change_box all x delta 0 ${delta} xy delta ${deltaxy} xz delta ${deltaxz} remap units box
change_box all x delta 0 -0.378966394303209 xy delta ${deltaxy} xz delta ${deltaxz} remap units box
change_box all x delta 0 -0.378966394303209 xy delta -2.07048934480085e-05 xz delta ${deltaxz} remap units box
change_box all x delta 0 -0.378966394303209 xy delta -2.07048934480085e-05 xz delta -3.70102381528857e-05 remap units box
Changing box ...
  triclinic box = (-0.00043121516 0.0048660643 -9.7033041e-05) to (37.517242 39.464503 30.158815) with tilt (0.0020704893 0.0037010238 -1.2416220)
  triclinic box = (-0.00043121516 0.0048660643 -9.7033041e-05) to (37.517242 39.464503 30.158815) with tilt (0.0020497845 0.0037010238 -1.2416220)
  triclinic box = (-0.00043121516 0.0048660643 -9.7033041e-05) to (37.517242 39.464503 30.158815) with tilt (0.0020497845 0.0036640136 -1.2416220)
if "${dir} == 2" then    "change_box all y delta 0 ${delta} yz delta ${deltayz} remap units box"
if "${dir} == 3" then    "change_box all z delta 0 ${delta} remap units box"
if "${dir} == 4" then    "change_box all yz delta ${delta} remap units box"
if "${dir} == 5" then    "change_box all xz delta ${delta} remap units box"
if "${dir} == 6" then    "change_box all xy delta ${delta} remap units box"

# Relax atoms positions

minimize ${etol} ${ftol} ${maxiter} ${maxeval}
minimize 1e-10 ${ftol} ${maxiter} ${maxeval}
minimize 1e-10 1e-10 ${maxiter} ${maxeval}
minimize 1e-10 1e-10 100000 ${maxeval}
minimize 1e-10 1e-10 100000 10000000
Neighbor list info ...
  update every 1 steps, delay 0 steps, check yes
  max neighbors/atom: 2000, page size: 100000
  master list distance cutoff = 13.5
  ghost atom cutoff = 13.5
  1 neighbor lists, perpetual/occasional/extra = 1 0 0
  (1) pair lj/cut, perpetual
      attributes: half, newton on
      pair build: half/nsq/newton
      stencil: none
      bin: none
WARNING: Inconsistent image flags (src/lammps-master/src/domain.cpp:812)
Per MPI rank memory allocation (min/avg/max) = 18.81 | 19.00 | 19.19 Mbytes
Step Temp PotEng Press Pxx Pyy Pzz Pxy Pxz Pyz Lx Ly Lz Volume 
       9            0    10383.231    12258.598    27703.493    5446.5003    3625.8004  -0.29266573   -7.9865585     340.6454    37.517673    39.459637    30.158912    44648.271 
      10            0    10373.631    11658.274    26157.354    5253.2104    3564.2584  -0.28700224   -7.7522494    307.68541    37.517673    39.459637    30.158912    44648.271 
      11            0    10365.064    11039.377    24585.209    5038.2572    3494.6657  -0.26539916   -7.5500138      275.627    37.517673    39.459637    30.158912    44648.271 
      12            0    10357.353    10395.936    22977.105    4798.2958    3412.4073  -0.21947406    -7.394069    246.08439    37.517673    39.459637    30.158912    44648.271 
      13            0    10350.328    9718.5246    21316.453    4528.4702    3310.6504  -0.13975194   -7.2940358    221.29587    37.517673    39.459637    30.158912    44648.271 
      14            0    10343.812    8990.9264    19573.078    4221.0378    3178.6636 -0.032324094    -7.253751    204.46084    37.517673    39.459637    30.158912    44648.271 
      15            0    10337.733    8204.2658    17738.604    3871.9555    3002.2381    0.1085047   -7.2958505    200.68188    37.517673    39.459637    30.158912    44648.271 
      16            0    10332.873    7491.5277    16126.933    3546.0183    2801.6315   0.25079262   -7.4096884    213.60044    37.517673    39.459637    30.158912    44648.271 
      17            0     10329.08    6881.8213    14781.268    3269.2653    2594.9311    0.3832951   -7.5329489    236.45648    37.517673    39.459637    30.158912    44648.271 
      18            0    10325.986    6347.2392    13616.796    3037.1672    2387.7545    0.5088048   -7.6605019    262.53209    37.517673    39.459637    30.158912    44648.271 
      19            0    10323.394      5870.42    12580.248    2846.3015     2184.711   0.62963281   -7.7882786    287.47673    37.517673    39.459637    30.158912    44648.271 
      20            0    10321.195    5440.5893    11637.209    2694.2695    1990.2897   0.75574942   -7.9122091    308.03707    37.517673    39.459637    30.158912    44648.271 
      21            0    10319.328    5051.3207    10765.084    2579.4923    1809.3857   0.90163045   -8.0493709    321.17907    37.517673    39.459637    30.158912    44648.271 
      22            0    10317.744    4699.5939    9949.8663    2501.1395    1647.7761    1.0680825   -8.1994042    323.79755    37.517673    39.459637    30.158912    44648.271 
      23            0    10316.403    4385.4183     9184.821     2458.934    1512.4999    1.2568338   -8.3759724    312.65975    37.517673    39.459637    30.158912    44648.271 
      24            0    10315.261    4111.7888    8470.3321    2452.4742    1412.5601    1.4692169    -8.584971    284.90978    37.517673    39.459637    30.158912    44648.271 
      25            0    10314.261    3883.3979    7812.2854    2479.8828    1358.0254    1.7053247   -8.8197908    237.97518    37.517673    39.459637    30.158912    44648.271 
      26            0    10313.448    3734.1279    7313.6872    2525.1067    1363.5899    1.9310449   -9.0949275    182.77414    37.517673    39.459637    30.158912    44648.271 
      27            0    10312.938    3623.5749    6953.3501     2570.405    1346.9695    2.0544038   -8.9797853    110.65974    37.517673    39.459637    30.158912    44648.271 
      28            0    10312.357    3568.6904    6701.0555    2589.0914    1415.9243    2.2405198    -9.532213    86.420782    37.517673    39.459637    30.158912    44648.271 
      29            0    10311.916    3487.1301    6426.9514    2623.9279    1410.5111    2.3637363   -9.6329615    28.341955    37.517673    39.459637    30.158912    44648.271 
      30            0    10311.724    3446.6104    6334.8812    2584.0042    1420.9458    1.9537055   -9.3692243    8.0554253    37.517673    39.459637    30.158912    44648.271 
      31            0    10311.386    3407.5718    6247.2918    2572.9828    1402.4409    1.9933992   -9.4212561   -31.279397    37.517673    39.459637    30.158912    44648.271 
      32            0    10311.165    3412.6353    6258.8958    2610.1184    1368.8918    2.4683539    -9.791697   -48.939288    37.517673    39.459637    30.158912    44648.271 
      33            0    10310.887    3345.5813    6126.6305    2583.0075    1327.1058    1.0850378   -9.6180715   -57.641334    37.517673    39.459637    30.158912    44648.271 
      34            0     10310.49    3249.5154    5956.7886    2523.6225    1268.1351    1.7934953   -9.7789942    -112.3112    37.517673    39.459637    30.158912    44648.271 
      35            0    10310.176    3191.9463     5863.383    2492.5406    1219.9152    3.2168137   -10.330147   -151.34045    37.517673    39.459637    30.158912    44648.271 
      36            0    10310.022    3152.2082    5770.3024    2467.7691    1218.5531    0.4291719   -8.8890616   -135.54335    37.517673    39.459637    30.158912    44648.271 
      37            0    10309.918    3099.9482    5660.2616    2431.6781    1207.9051   -1.5952597   -7.9795268      -142.65    37.517673    39.459637    30.158912    44648.271 
      38            0    10309.588    3048.1876    5570.3263    2389.3847    1184.8517   -1.0216934   -8.6322298    -186.9179    37.517673    39.459637    30.158912    44648.271 
      39            0    10309.499    3055.0964    5601.6271    2383.2643    1180.3979       1.6181   -10.113967   -212.38852    37.517673    39.459637    30.158912    44648.271 
      40            0    10309.434    3041.8011    5579.6545    2337.7122    1208.0366    3.9120563   -9.5722044   -192.74523    37.517673    39.459637    30.158912    44648.271 
      41            0    10309.248    3018.4019    5536.3985    2298.2866    1220.5205    5.1140536    -8.437018   -182.84073    37.517673    39.459637    30.158912    44648.271 
      42            0    10309.202    3020.0978    5540.2812    2317.9012     1202.111     2.732463   -9.0136674   -195.73477    37.517673    39.459637    30.158912    44648.271 
      43            0    10309.177    3024.6817    5564.2466    2322.6854    1187.1131   -1.7364687   -11.861887   -197.18099    37.517673    39.459637    30.158912    44648.271 
      44            0    10309.066    3010.6413    5628.9133    2322.3388    1080.6716   -3.3264116   -16.168636   -220.64251    37.517673    39.459637    30.158912    44648.271 
      45            0    10308.891    2963.6515    5596.1991    2281.5376    1013.2178    3.6217463   -8.8534607   -215.41964    37.517673    39.459637    30.158912    44648.271 
      46            0    10308.799    2879.3233    5399.7131    2208.0469    1030.2101    1.3948469   -8.7720498    -204.3262    37.517673    39.459637    30.158912    44648.271 
      47            0    10308.728    2786.2311    5163.1225    2130.4105    1065.1603  -0.80652122   -10.711676   -203.08625    37.517673    39.459637    30.158912    44648.271 
      48            0    10308.617     2807.888    5224.6018    2143.8179    1055.2443    1.8292491   -10.243522   -218.19505    37.517673    39.459637    30.158912    44648.271 
      49            0    10308.467    2864.9658    5402.5477    2171.3816    1020.9681    2.7865918   -9.0782428   -226.98022    37.517673    39.459637    30.158912    44648.271 
      50            0    10308.408    2871.8246     5419.509    2162.0416    1033.9231   0.28668371    -10.47777   -218.24139    37.517673    39.459637    30.158912    44648.271 
      51            0    10308.352    2845.9516    5358.4148    2123.6321    1055.8079   0.29100947   -10.958702    -211.3608    37.517673    39.459637    30.158912    44648.271 
      52            0    10308.315    2819.7383    5316.2154    2107.4845     1035.515    2.1563688   -9.4482476   -220.48617    37.517673    39.459637    30.158912    44648.271 
      53            0    10308.232    2804.3856    5321.4256    2126.9063    964.82483    2.8325894   -8.4201237   -263.60498    37.517673    39.459637    30.158912    44648.271 
      54            0    10308.132    2779.9254    5293.5809    2114.8104     931.3848   0.31885212   -11.549678   -270.61419    37.517673    39.459637    30.158912    44648.271 
      55            0    10308.032     2718.223     5156.091    2055.3845    943.19369   0.39063414   -11.865052    -231.3698    37.517673    39.459637    30.158912    44648.271 
      56            0    10307.957    2673.3819    5027.8224    2016.0032    976.32018    1.3566756   -9.0110243   -214.35058    37.517673    39.459637    30.158912    44648.271 
      57            0    10307.886     2690.096    5067.5521    2031.6384    971.09751    1.0253184   -8.6389006   -241.52606    37.517673    39.459637    30.158912    44648.271 
      58            0    10307.837    2714.0995     5170.978    2043.5651     927.7555    1.2239084   -11.469611   -267.11168    37.517673    39.459637    30.158912    44648.271 
      59            0    10307.792    2720.0605     5210.792    2029.8347    919.55488    1.6061897   -11.961338   -269.50579    37.517673    39.459637    30.158912    44648.271 
      60            0    10307.724    2708.5669    5167.4977    1983.1224    975.08067   0.31201824   -8.0395327   -258.06339    37.517673    39.459637    30.158912    44648.271 
      61            0     10307.65    2679.5713    5077.5556    1954.6527    1006.5057   0.55187064    -7.794629   -251.95041    37.517673    39.459637    30.158912    44648.271 
      62            0    10307.553      2663.13    5057.8041     1953.818    977.76804     2.012674   -10.959109    -256.5629    37.517673    39.459637    30.158912    44648.271 
      63            0    10307.489    2670.4933    5157.3435    1950.4344    903.70195   0.18754996   -11.529658    -243.8484    37.517673    39.459637    30.158912    44648.271 
      64            0    10307.455    2655.5604    5163.4702    1940.2543    862.95677  -0.23605325   -10.000339   -237.62745    37.517673    39.459637    30.158912    44648.271 
      65            0    10307.366    2611.1855    5050.8492    1909.9677    872.73967    1.0262867   -7.7127367   -245.40384    37.517673    39.459637    30.158912    44648.271 
      66            0    10307.335    2601.2136    5006.8585    1899.1174    897.66492    1.0650145   -9.5565779    -251.1413    37.517673    39.459637    30.158912    44648.271 
      67            0    10307.322    2598.5904    4987.2546    1899.5536    908.96293   0.83836147   -11.653387   -250.15112    37.517673    39.459637    30.158912    44648.271 
      68            0    10307.306    2614.9758     5034.457    1905.2871     905.1835   0.64434085   -8.9412953   -239.00277    37.517673    39.459637    30.158912    44648.271 
      69            0    10307.268    2645.0433    5118.7701    1921.1143     895.2454    1.0688934   -6.3487159   -246.14457    37.517673    39.459637    30.158912    44648.271 
      70            0    10307.203    2653.2826     5123.116    1923.8734    912.85841   0.89002181    -9.081133   -262.60561    37.517673    39.459637    30.158912    44648.271 
      71            0     10307.16    2615.5816    5006.4267    1892.9259    947.39231   0.67695836   -11.305801   -270.43437    37.517673    39.459637    30.158912    44648.271 
      72            0    10307.128    2566.8109    4882.6043    1846.9829    970.84543    1.1512542   -11.700377   -267.32503    37.517673    39.459637    30.158912    44648.271 
      73            0    10307.114    2562.2667    4898.5457    1842.1368    946.11752   0.78552369   -10.126902   -247.43115    37.517673    39.459637    30.158912    44648.271 
      74            0    10307.094    2575.3846    4977.7636    1863.4965    884.89369    0.5203646   -8.0824025    -228.6195    37.517673    39.459637    30.158912    44648.271 
      75            0    10307.034    2582.1936    5055.8118    1888.6154    802.15353    1.1347971   -9.6339119   -225.72362    37.517673    39.459637    30.158912    44648.271 
      76            0    10306.976    2547.4778    4994.3147    1863.4706    784.64809    1.0811869   -12.223846    -245.8529    37.517673    39.459637    30.158912    44648.271 
      77            0    10306.908    2512.4502    4918.9555     1812.636    805.75925   0.44077064   -12.235416    -253.7562    37.517673    39.459637    30.158912    44648.271 
      78            0    10306.875     2519.375     4934.754    1805.4567    817.91423    0.4149459   -10.067814   -241.84003    37.517673    39.459637    30.158912    44648.271 
      79            0    10306.854    2518.5774    4924.4611    1795.5631    835.70816   0.80247174   -8.9215812    -233.9197    37.517673    39.459637    30.158912    44648.271 
      80            0    10306.841    2515.4221    4897.6738    1781.7618    866.83062    1.0279095   -9.8974293   -234.19819    37.517673    39.459637    30.158912    44648.271 
      81            0    10306.826    2515.3932    4850.7434    1764.5313     930.9048   0.68272461   -11.907023   -251.14234    37.517673    39.459637    30.158912    44648.271 
      82            0    10306.795    2546.2532    4849.3507    1765.5342    1023.8746  -0.46016834   -11.456284   -258.23709    37.517673    39.459637    30.158912    44648.271 
      83            0    10306.748    2580.1762    4884.4261    1774.1776     1081.925   0.12511744   -8.3453047   -265.18445    37.517673    39.459637    30.158912    44648.271 
      84            0    10306.702    2561.4437     4872.419    1785.3233    1026.5887    2.1386598    -11.00904   -292.75474    37.517673    39.459637    30.158912    44648.271 
      85            0    10306.656    2514.0541      4814.16    1774.2138    953.78831     1.631901   -13.987224   -292.99877    37.517673    39.459637    30.158912    44648.271 
      86            0    10306.568    2455.0778    4720.8981     1737.407    906.92834   0.44772452   -13.218423   -283.11972    37.517673    39.459637    30.158912    44648.271 
      87            0    10306.546    2453.3567    4703.8601    1724.0771    932.13294   0.95188326   -10.684357   -277.95916    37.517673    39.459637    30.158912    44648.271 
      88            0    10306.534    2454.8468    4699.0375    1715.8241    949.67884   0.91119203   -9.5816607    -263.9224    37.517673    39.459637    30.158912    44648.271 
      89            0    10306.523    2458.0397    4732.1742    1710.4898    931.45489   0.41289173   -10.425225   -258.92458    37.517673    39.459637    30.158912    44648.271 
      90            0    10306.499    2470.6459    4836.1214    1696.1162    879.69999 -0.014151136   -11.442666   -246.94912    37.517673    39.459637    30.158912    44648.271 
      91            0    10306.482     2475.751    4891.3899    1684.7889    851.07428   0.35362822   -10.311026   -238.71602    37.517673    39.459637    30.158912    44648.271 
      92            0    10306.466    2469.9468    4893.3505    1660.7184    855.77148   0.86173367   -8.6245811   -238.58222    37.517673    39.459637    30.158912    44648.271 
      93            0    10306.441    2435.0478     4810.678    1626.9227     867.5429    1.0135377   -12.078271   -256.70495    37.517673    39.459637    30.158912    44648.271 
      94            0    10306.405    2407.2989    4762.5294    1600.9758    858.39154   0.30965265   -12.196897   -248.13524    37.517673    39.459637    30.158912    44648.271 
      95            0    10306.339    2394.5597    4757.0576    1602.1179    824.50341 -0.070713873   -10.847293   -238.78136    37.517673    39.459637    30.158912    44648.271 
      96            0    10306.323     2404.828    4777.3108    1614.4756    822.69761   0.35809412   -10.580247   -241.15101    37.517673    39.459637    30.158912    44648.271 
      97            0    10306.302    2411.4185    4780.2123    1614.8928    839.15031   0.81492978   -9.5873417   -241.09445    37.517673    39.459637    30.158912    44648.271 
      98            0    10306.287    2405.6544     4751.885    1613.0793    851.99901   0.75419268   -9.8838585   -252.76775    37.517673    39.459637    30.158912    44648.271 
      99            0    10306.276    2410.6395    4727.1374    1604.7439    900.03711  0.081418767   -11.494523   -261.05881    37.517673    39.459637    30.158912    44648.271 
     100            0    10306.262    2410.3827    4678.3665    1613.3485    939.43317  -0.17028019   -11.669664   -269.56195    37.517673    39.459637    30.158912    44648.271 
     101            0    10306.255    2409.5581    4664.9862    1618.5215    945.16666   0.81462355   -9.9473053   -270.51434    37.517673    39.459637    30.158912    44648.271 
     102            0    10306.244    2396.7915    4640.8725    1622.8206    926.68149    1.7946913   -9.1130546    -287.0497    37.517673    39.459637    30.158912    44648.271 
     103            0    10306.222    2366.8546    4580.9351    1619.8059    899.82272    -0.554689   -12.712365   -300.65838    37.517673    39.459637    30.158912    44648.271 
     104            0     10306.18    2327.6766     4503.658    1595.5822    883.78972   -1.7828833   -13.697684   -300.85997    37.517673    39.459637    30.158912    44648.271 
     105            0    10306.144    2344.2218    4544.9989    1585.6385    902.02812    3.1817919   -6.5328215   -276.73203    37.517673    39.459637    30.158912    44648.271 
     106            0    10306.103    2361.1216    4617.2756    1555.7808    910.30843    5.0177246   -3.1803583   -243.20516    37.517673    39.459637    30.158912    44648.271 
     107            0    10306.045    2354.9588    4640.7159    1507.9885    916.17208  -0.50174631    -12.51409   -249.27367    37.517673    39.459637    30.158912    44648.271 
     108            0    10306.003    2332.3834    4596.3489     1479.301    921.50034    -1.183141   -14.396073   -289.68493    37.517673    39.459637    30.158912    44648.271 
     109            0    10305.979    2304.9924    4552.5422    1472.7445    889.69041   0.18869794   -10.150564   -299.76987    37.517673    39.459637    30.158912    44648.271 
     110            0    10305.952    2313.1791    4582.0875    1496.8037    860.64602    1.2440411   -8.5995716   -280.49821    37.517673    39.459637    30.158912    44648.271 
     111            0    10305.932    2330.3279    4626.6007    1504.3345    860.04861   0.98200281   -10.751774   -272.64219    37.517673    39.459637    30.158912    44648.271 
     112            0    10305.914    2321.0753    4619.3061    1475.6691    868.25083 -0.019274855   -10.486729   -274.73378    37.517673    39.459637    30.158912    44648.271 
     113            0    10305.893     2290.868    4547.8124    1435.3615    889.43017  -0.85938823   -11.355431   -276.44015    37.517673    39.459637    30.158912    44648.271 
     114            0    10305.872    2264.1261    4478.7384    1411.2027    902.43716  -0.23706481   -11.813735   -276.91357    37.517673    39.459637    30.158912    44648.271 
     115            0    10305.839    2240.5819    4407.1005    1434.6589    879.98631    3.0848601    -6.271927   -284.86679    37.517673    39.459637    30.158912    44648.271 
     116            0    10305.804    2235.0131    4388.1281    1453.8437    863.06767    2.3444869   -7.7215061   -301.41954    37.517673    39.459637    30.158912    44648.271 
     117            0    10305.771    2253.5951    4446.1907    1419.7878    894.80693   -2.5968133   -16.865514   -318.56284    37.517673    39.459637    30.158912    44648.271 
     118            0    10305.734    2250.0312     4457.591    1377.6436    914.85901   -2.2143804   -12.821834   -318.19202    37.517673    39.459637    30.158912    44648.271 
     119            0    10305.697     2234.163    4425.2386    1334.4916    942.75873    2.1087201   -5.6796263   -311.50235    37.517673    39.459637    30.158912    44648.271 
     120            0    10305.653    2204.9128    4371.8283    1301.9768    940.93331    3.0156052   -10.189575   -320.95877    37.517673    39.459637    30.158912    44648.271 
     121            0    10305.629    2187.6398    4356.4438    1283.8189    922.65679   0.35459795   -12.086186   -321.05136    37.517673    39.459637    30.158912    44648.271 
     122            0    10305.606    2193.5324    4386.9968    1293.8732    899.72711   -3.1696206   -12.090105   -323.15498    37.517673    39.459637    30.158912    44648.271 
     123            0    10305.588    2202.3547    4392.6561    1322.5074    891.90053  -0.56855909   -10.431674   -318.68486    37.517673    39.459637    30.158912    44648.271 
     124            0    10305.572    2187.6479    4361.1464    1335.4816     866.3158    2.7992879   -8.6869596   -304.99041    37.517673    39.459637    30.158912    44648.271 
     125            0    10305.557    2160.0907    4335.8256    1282.7582    861.68843  -0.44644326   -12.337446   -316.26448    37.517673    39.459637    30.158912    44648.271 
     126            0     10305.55    2152.4393    4328.4807    1253.3702    875.46712   -1.3375197   -12.206806   -325.57995    37.517673    39.459637    30.158912    44648.271 
     127            0    10305.542    2150.5099     4318.627    1253.7099    879.19281   0.87709732   -8.8115006   -323.29942    37.517673    39.459637    30.158912    44648.271 
     128            0    10305.533    2154.2995    4325.2871      1257.77    879.84143    1.5736842   -9.7902911   -314.75231    37.517673    39.459637    30.158912    44648.271 
     129            0    10305.523    2160.4866    4348.6297    1255.2452    877.58482 0.0071431963   -12.377612   -313.62079    37.517673    39.459637    30.158912    44648.271 
     130            0    10305.515    2161.4406    4351.6127    1242.2695    890.43967  -0.97295383   -10.800037   -317.71219    37.517673    39.459637    30.158912    44648.271 
     131            0    10305.505    2157.5942    4323.3125    1234.8461    914.62392 -0.088754581   -9.2261322   -329.81643    37.517673    39.459637    30.158912    44648.271 
     132            0    10305.488    2158.2843    4290.5804    1238.3332     945.9394    1.2484164   -10.786052   -351.48164    37.517673    39.459637    30.158912    44648.271 
     133            0    10305.476    2149.2745     4284.503    1234.7856    928.53486   0.37795234   -11.283571   -355.26973    37.517673    39.459637    30.158912    44648.271 
     134            0    10305.459    2130.3928    4285.6736    1216.4546     889.0501  -0.78549659   -11.108769   -353.61232    37.517673    39.459637    30.158912    44648.271 
     135            0    10305.441    2098.7934    4231.2934    1191.5324    873.55426  -0.25087516   -11.306455   -340.60795    37.517673    39.459637    30.158912    44648.271 
     136            0    10305.429    2071.3819    4175.9574     1177.121    861.06738   0.41096298   -10.574208   -334.31382    37.517673    39.459637    30.158912    44648.271 
     137            0    10305.409    2053.4998    4140.7218    1138.1664    881.61134    1.1066176   -9.4842532   -347.05621    37.517673    39.459637    30.158912    44648.271 
     138            0    10305.397    2062.6995     4160.043    1118.1582    909.89723   0.38359961   -11.031902    -368.6894    37.517673    39.459637    30.158912    44648.271 
     139            0    10305.382    2084.6254    4207.5679    1116.9163    929.39188  -0.82817729   -12.189247   -373.89217    37.517673    39.459637    30.158912    44648.271 
     140            0    10305.372    2100.9688    4254.2803    1142.4009    906.22513  -0.36952527   -10.534037   -361.76263    37.517673    39.459637    30.158912    44648.271 
     141            0    10305.366    2102.2697    4258.2683     1155.395    893.14589   0.55715056   -9.9540228   -362.48078    37.517673    39.459637    30.158912    44648.271 
     142            0    10305.359    2085.5852    4213.6398    1146.3186    896.79722   0.64446807    -10.73708   -374.49511    37.517673    39.459637    30.158912    44648.271 
     143            0    10305.353    2069.3126    4182.0572     1124.062    901.81845  -0.58661014   -11.673022   -379.11126    37.517673    39.459637    30.158912    44648.271 
     144            0    10305.349    2055.0675    4164.3508    1101.3053     899.5465  -0.81821946   -11.170513   -373.65448    37.517673    39.459637    30.158912    44648.271 
     145            0    10305.347    2042.7815    4149.2077    1093.6377    885.49892   0.60053407   -9.8699608   -364.35571    37.517673    39.459637    30.158912    44648.271 
     146            0    10305.345    2044.0309    4146.5879    1095.7526    889.75234   0.80733342   -10.708661   -365.61865    37.517673    39.459637    30.158912    44648.271 
     147            0     10305.34    2056.4598    4157.1379    1105.6342    906.60733  -0.78831838    -12.62214   -379.52966    37.517673    39.459637    30.158912    44648.271 
     148            0    10305.336    2062.5513    4167.0875    1108.5402    912.02621  -0.64149976   -10.819391   -384.70993    37.517673    39.459637    30.158912    44648.271 
     149            0    10305.332    2065.1055    4173.8946    1110.9035    910.51847   0.60185764   -8.9983502   -390.28202    37.517673    39.459637    30.158912    44648.271 
     150            0    10305.326    2054.8124    4154.0916    1094.9127    915.43301   0.47901595   -11.634905   -396.88922    37.517673    39.459637    30.158912    44648.271 
     151            0    10305.322    2045.9638      4145.93    1071.6461    920.31528  -0.08861912    -12.40146   -393.96058    37.517673    39.459637    30.158912    44648.271 
     152            0    10305.312    2046.7967    4168.0347    1043.3048     929.0506  -0.52858111   -10.096725   -387.31338    37.517673    39.459637    30.158912    44648.271 
     153            0    10305.303    2044.2081    4154.2477    1047.9391    930.43766   0.15539405   -10.428187   -393.25165    37.517673    39.459637    30.158912    44648.271 
     154            0    10305.296    2026.0879    4099.1432      1073.37    905.75052    1.0186053   -12.054799   -406.89133    37.517673    39.459637    30.158912    44648.271 
     155            0    10305.286    2013.0051    4076.8657    1073.3265    888.82312   0.22949596   -10.654983   -419.40974    37.517673    39.459637    30.158912    44648.271 
     156            0    10305.279    2012.7284    4088.2639    1066.2502     883.6711  -0.61950885   -9.6870849   -424.16874    37.517673    39.459637    30.158912    44648.271 
     157            0    10305.271    2011.7045    4094.2138    1057.6805    883.21919  -0.64008212   -11.554696   -412.98104    37.517673    39.459637    30.158912    44648.271 
     158            0    10305.267    2013.4518     4091.128    1049.4877    899.73966   0.21184962   -11.717682   -409.66761    37.517673    39.459637    30.158912    44648.271 
     159            0    10305.263    2018.5563    4097.9995    1039.7273     917.9423   0.63444339   -10.419305   -417.06526    37.517673    39.459637    30.158912    44648.271 
     160            0    10305.258    2017.4986    4105.2608    1019.5831    927.65178   0.25995882   -10.516073   -424.91552    37.517673    39.459637    30.158912    44648.271 
     161            0    10305.257    2015.5215    4103.5224    1020.3518    922.69036  -0.35531232   -11.350043    -428.0397    37.517673    39.459637    30.158912    44648.271 
     162            0    10305.254    2015.4171    4094.6663    1038.0015    913.58339  -0.54574332   -11.237506   -429.66611    37.517673    39.459637    30.158912    44648.271 
     163            0    10305.251    2013.4804    4091.5964    1042.9631     905.8817   0.40483411   -10.561396    -430.8654    37.517673    39.459637    30.158912    44648.271 
     164            0    10305.249     2010.145    4090.2545    1031.6373    908.54317   0.91208242   -10.437449   -436.64772    37.517673    39.459637    30.158912    44648.271 
     165            0    10305.247    2001.5249    4071.7423    1015.6255     917.2068    -0.955279   -11.690554   -441.82861    37.517673    39.459637    30.158912    44648.271 
     166            0    10305.246    1994.1033     4053.063    1009.5498    919.69698  -0.91465341   -11.666091   -440.72747    37.517673    39.459637    30.158912    44648.271 
     167            0    10305.244     1991.187    4044.7666    1006.5137    922.28052    1.5690871   -9.8696617   -438.48581    37.517673    39.459637    30.158912    44648.271 
     168            0    10305.243     1995.896    4061.9294    1006.3276    919.43098   0.65537928   -10.660252   -439.08317    37.517673    39.459637    30.158912    44648.271 
     169            0    10305.241    2002.6043    4078.4052    1009.3724    920.03545   -1.2631761   -11.907441   -439.48951    37.517673    39.459637    30.158912    44648.271 
     170            0     10305.24    2014.8221    4084.2367    1028.1723    932.05713  -0.36318898   -10.201393   -448.30582    37.517673    39.459637    30.158912    44648.271 
     171            0    10305.239    2022.7311    4089.3349    1034.3997    944.45869    1.2062316   -9.7695002   -457.62935    37.517673    39.459637    30.158912    44648.271 
     172            0    10305.235    2014.7118    4087.8062     1022.138    934.19137    1.0441115   -12.637745   -468.00021    37.517673    39.459637    30.158912    44648.271 
     173            0    10305.232    2002.8287    4081.8945    1014.7457    911.84591   -1.2725023   -11.990881   -465.96672    37.517673    39.459637    30.158912    44648.271 
     174            0    10305.227    1990.9402     4064.887    1022.1498    885.78377   -1.3533706   -9.5204716    -456.7947    37.517673    39.459637    30.158912    44648.271 
     175            0    10305.225    1984.7611      4048.55    1027.6549    878.07845    1.4823268   -10.467457   -449.86383    37.517673    39.459637    30.158912    44648.271 
     176            0    10305.222    1989.8803    4049.1478    1019.7153    900.77777   0.88380031   -11.678426   -454.46323    37.517673    39.459637    30.158912    44648.271 
     177            0    10305.219    1995.4347    4049.0341    1006.7507    930.51935   -1.2345565   -11.134279    -464.1344    37.517673    39.459637    30.158912    44648.271 
     178            0    10305.216    2001.4329    4055.1635    1006.5092      942.626  -0.40326163   -10.656776   -465.40951    37.517673    39.459637    30.158912    44648.271 
     179            0    10305.214    2005.5472    4062.3389    1015.6345    938.66815   0.86717552   -10.975748    -466.9385    37.517673    39.459637    30.158912    44648.271 
     180            0    10305.211    2003.0554    4066.0021    1015.4756    927.68846   0.11511566   -11.111355   -469.85031    37.517673    39.459637    30.158912    44648.271 
     181            0     10305.21    1998.7379    4066.1712    1010.4058     919.6366  -0.46779517   -11.080064   -471.18126    37.517673    39.459637    30.158912    44648.271 
     182            0    10305.208    1996.5854    4062.6433    1003.2586     923.8543 -0.038068881   -10.738831   -472.02207    37.517673    39.459637    30.158912    44648.271 
     183            0    10305.207    1995.1572    4059.5257    1004.1731    921.77281   0.29059546   -10.764335   -472.28475    37.517673    39.459637    30.158912    44648.271 
     184            0    10305.206    1990.2126     4051.836      1005.57    913.23169   0.36191245   -11.369264   -471.98906    37.517673    39.459637    30.158912    44648.271 
     185            0    10305.205    1991.9715     4050.112     1007.193    918.60935  0.048109854   -10.820725   -475.86626    37.517673    39.459637    30.158912    44648.271 
     186            0    10305.203    1997.0903    4051.7455    1013.0846    926.44091  -0.12184707   -10.693868   -477.63278    37.517673    39.459637    30.158912    44648.271 
     187            0    10305.202    2004.2873    4052.1925    1024.2774    936.39211 0.0088182993   -11.767518   -473.87253    37.517673    39.459637    30.158912    44648.271 
     188            0      10305.2    2006.1069    4056.3823    1032.1723    929.76604   0.13984447   -10.823468   -471.37398    37.517673    39.459637    30.158912    44648.271 
     189            0    10305.199     2006.161    4066.7625    1029.7402    921.98009   0.16446089   -9.6518733   -471.87905    37.517673    39.459637    30.158912    44648.271 
     190            0    10305.197     2003.403    4078.7567    1019.8439    911.60848 -0.024472975   -11.807832   -473.07818    37.517673    39.459637    30.158912    44648.271 
     191            0    10305.195    1999.3887     4074.512    1016.0427    907.61158  0.042978024   -12.072593   -470.49775    37.517673    39.459637    30.158912    44648.271 
     192            0    10305.194    1996.7294    4061.5359    1020.2314    908.42072   0.41389427   -9.8868851   -469.84372    37.517673    39.459637    30.158912    44648.271 
     193            0    10305.192     2000.513    4065.4885    1023.2275    912.82298   0.40648676   -10.840074   -473.24049    37.517673    39.459637    30.158912    44648.271 
     194            0    10305.189     2004.181    4073.4045    1020.8053    918.33303  0.081942166   -11.589982    -475.9669    37.517673    39.459637    30.158912    44648.271 
     195            0    10305.187    2003.3705    4072.4673    1023.1001    914.54396  -0.44941898   -10.333166   -474.75304    37.517673    39.459637    30.158912    44648.271 
     196            0    10305.186    2001.5279    4067.0131    1024.3425    913.22796  -0.12764261    -10.18338   -473.54246    37.517673    39.459637    30.158912    44648.271 
     197            0    10305.184    2001.0375    4062.0274    1023.0078    918.07739   0.80072574   -11.240658   -476.32287    37.517673    39.459637    30.158912    44648.271 
     198            0    10305.183    2004.3096    4068.0405    1019.8564    925.03176   0.27200207   -11.212157   -476.37005    37.517673    39.459637    30.158912    44648.271 
     199            0    10305.183    2007.0787    4075.1058    1017.1916    928.93869  -0.39462746   -10.979695   -473.55526    37.517673    39.459637    30.158912    44648.271 
     200            0    10305.182    2005.9962    4072.7572    1022.4472    922.78437   0.15525612   -10.500468   -472.80581    37.517673    39.459637    30.158912    44648.271 
     201            0    10305.182    2003.9525    4067.5151     1026.121     918.2214   0.39499563   -10.681574   -473.76234    37.517673    39.459637    30.158912    44648.271 
     202            0    10305.181    2003.6197    4065.4235    1029.0522     916.3834   0.04728875   -11.365075   -475.38594    37.517673    39.459637    30.158912    44648.271 
     203            0    10305.181     2005.806    4071.2076    1029.8215    916.38875 -0.041843809   -10.798263   -475.56502    37.517673    39.459637    30.158912    44648.271 
     204            0    10305.181     2006.856    4074.9441    1030.9277    914.69639   0.20968098   -10.503259    -474.9341    37.517673    39.459637    30.158912    44648.271 
     205            0     10305.18    2008.2893    4074.4407    1032.4483      917.979   0.41022933     -11.4136   -474.07967    37.517673    39.459637    30.158912    44648.271 
     206            0     10305.18    2009.0813    4073.3857    1031.8422    922.01603  0.099204719   -11.284207   -472.80343    37.517673    39.459637    30.158912    44648.271 
     207            0    10305.179    2007.6321    4072.4905    1028.1344    922.27136   -0.2737727   -9.8638025   -470.65222    37.517673    39.459637    30.158912    44648.271 
     208            0    10305.177    2006.1156    4070.7108    1028.9741    918.66187   0.05745209   -10.839407   -470.13079    37.517673    39.459637    30.158912    44648.271 
     209            0    10305.177    2006.0472    4069.1831    1032.7384    916.22011    0.4110906    -11.93411   -470.61198    37.517673    39.459637    30.158912    44648.271 
     210            0    10305.176    2007.8914     4071.029    1030.4424     922.2029   0.29155397   -10.755896   -470.26371    37.517673    39.459637    30.158912    44648.271 
     211            0    10305.174    2007.9238    4074.9471    1024.1423    924.68209   0.16809385   -10.669225   -469.00002    37.517673    39.459637    30.158912    44648.271 
     212            0    10305.174    2008.3904    4081.7118    1019.5151    923.94422  0.074331594   -11.173145   -467.58734    37.517673    39.459637    30.158912    44648.271 
     213            0    10305.173     2008.416    4081.1776    1026.0668    918.00377 -0.023840474   -10.949167   -467.16622    37.517673    39.459637    30.158912    44648.271 
     214            0    10305.173    2008.5203    4079.5462    1030.6852    915.32949  0.034003041    -10.75158   -466.32188    37.517673    39.459637    30.158912    44648.271 
     215            0    10305.172    2010.2045    4080.3538    1031.5461    918.71363   0.25133275   -10.648166   -468.88333    37.517673    39.459637    30.158912    44648.271 
     216            0    10305.172    2011.1616    4078.8826    1032.9971    921.60503   0.22955553    -10.89785   -470.59769    37.517673    39.459637    30.158912    44648.271 
     217            0    10305.172    2011.4674    4076.3601    1035.6093    922.43279   0.10330525   -11.385312   -469.56103    37.517673    39.459637    30.158912    44648.271 
     218            0    10305.172    2009.9867    4075.9291    1034.8879    919.14313   0.17351167   -10.834025   -466.10757    37.517673    39.459637    30.158912    44648.271 
     219            0    10305.171    2009.0493    4077.5046    1032.9953    916.64792   0.17367907   -10.476343   -463.86776    37.517673    39.459637    30.158912    44648.271 
     220            0    10305.171    2008.8773    4077.9419    1032.6692    916.02074  0.013020878   -11.071907   -464.59055    37.517673    39.459637    30.158912    44648.271 
     221            0    10305.171    2008.8773    4077.9419    1032.6692    916.02074  0.013020878   -11.071907   -464.59055    37.517673    39.459637    30.158912    44648.271 
Loop time of 2.46827 on 8 procs for 212 steps with 3712 atoms

99.5% CPU use with 8 MPI tasks x 1 OpenMP threads

Minimization stats:
  Stopping criterion = linesearch alpha is zero
  Energy initial, next-to-last, final = 
      10383.2309070999   10305.1712078345   10305.1712078345
  Force two-norm initial, final = 381.31115 0.59557118
  Force max component initial, final = 14.187507 0.058698607
  Final line search alpha, max atom move = 2.4176953e-08 1.4191535e-09
  Iterations, force evaluations = 212 409

MPI task timing breakdown:
Section |  min time  |  avg time  |  max time  |%varavg| %total
---------------------------------------------------------------
Pair    | 1.4138     | 1.8304     | 2.2823     |  23.7 | 74.16
Bond    | 0.084069   | 0.088303   | 0.09057    |   0.7 |  3.58
Neigh   | 0          | 0          | 0          |   0.0 |  0.00
Comm    | 0.051179   | 0.5049     | 0.92255    |  45.4 | 20.46
Output  | 0.0083036  | 0.010856   | 0.026494   |   5.7 |  0.44
Modify  | 0          | 0          | 0          |   0.0 |  0.00
Other   |            | 0.03377    |            |       |  1.37

Nlocal:        464.000 ave         464 max         464 min
Histogram: 8 0 0 0 0 0 0 0 0 0
Nghost:        7191.00 ave        7191 max        7191 min
Histogram: 8 0 0 0 0 0 0 0 0 0
Neighs:        197781.0 ave      250823 max      144728 min
Histogram: 1 1 1 1 0 0 1 1 1 1

Total # of neighbors = 1582247
Ave neighs/atom = 426.25189
Ave special neighs/atom = 13.034483
Neighbor list builds = 0
Dangerous builds = 0

# Obtain new stress tensor

variable tmp equal pxx
variable pxx1 equal ${tmp}
variable pxx1 equal 4077.94193972706
variable tmp equal pyy
variable pyy1 equal ${tmp}
variable pyy1 equal 1032.66921035205
variable tmp equal pzz
variable pzz1 equal ${tmp}
variable pzz1 equal 916.020743951701
variable tmp equal pxy
variable pxy1 equal ${tmp}
variable pxy1 equal 0.0130208775196907
variable tmp equal pxz
variable pxz1 equal ${tmp}
variable pxz1 equal -11.0719070677279
variable tmp equal pyz
variable pyz1 equal ${tmp}
variable pyz1 equal -464.590548295278

# Compute elastic constant from pressure tensor

variable C1neg equal ${d1}
variable C1neg equal 41.2925629133078
variable C2neg equal ${d2}
variable C2neg equal 10.4485586599967
variable C3neg equal ${d3}
variable C3neg equal 9.24415412904578
variable C4neg equal ${d4}
variable C4neg equal -5.04053735130065
variable C5neg equal ${d5}
variable C5neg equal -0.02645624052855
variable C6neg equal ${d6}
variable C6neg equal 0.00726182556520256

# Reset box and simulation parameters

clear
OMP_NUM_THREADS environment is not set. Defaulting to 1 thread. (src/lammps-master/src/comm.cpp:94)
  using 1 OpenMP thread(s) per MPI task
box tilt large
read_restart restart.equil
Reading restart file ...
  restart file = 30 Nov 2020, LAMMPS = 30 Nov 2020
  restoring atom style full from restart
  triclinic box = (-0.00043121516 0.0048660643 -9.7033041e-05) to (37.896208 39.464503 30.158815) with tilt (0.0020704893 0.0037010238 -1.2416220)
  2 by 2 by 2 MPI processor grid
  restoring pair style lj/cut from restart
  restoring bond style harmonic from restart
  restoring angle style hybrid from restart
  restoring dihedral style harmonic from restart
  restoring improper style fourier from restart
  3712 atoms
  4096 bonds
  7808 angles
  9856 dihedrals
  3072 impropers
Finding 1-2 1-3 1-4 neighbors ...
  special bond factors lj:    0        0        1       
  special bond factors coul:  0        0        0       
     4 = max # of 1-2 neighbors
     8 = max # of 1-3 neighbors
    21 = max # of 1-4 neighbors
    25 = max # of special neighbors
  special bonds CPU = 0.001 seconds
  read_restart CPU = 0.005 seconds
include potential.mod
pair_style      lj/cut 12.5
bond_style      harmonic
angle_style     hybrid cosine/periodic fourier
dihedral_style  harmonic
improper_style  fourier


special_bonds   lj 0.0 0.0 1.0
pair_modify     tail yes mix arithmetic
include data.pair
bond_coeff     1      154.048673        1.928536  # Zn3f2 N_R
bond_coeff     2      122.127512        2.014866  # Zn3f2 O_2
bond_coeff     3      153.811316        1.929528  # Zn3f2 N_3
bond_coeff     4      527.945261        1.044419  # H_ N_3
bond_coeff     5      357.440381        1.081418  # H_ C_R
bond_coeff     6      331.069389        1.109401  # H_ C_3
bond_coeff     7      529.459447        1.043423  # H_ N_R
bond_coeff     8      663.718927        1.345073  # C_R N_R
bond_coeff     9      462.655054        1.379256  # C_R C_R
bond_coeff    10      369.943935        1.486000  # C_R C_3
bond_coeff    11      714.557442        1.269010  # C_R O_2
bond_coeff    12      646.680887        1.311940  # C_R O_R
bond_coeff    13      349.795899        1.514000  # C_3 C_3
bond_coeff    14      529.724731        1.450075  # C_3 N_R
bond_coeff    15      528.634538        1.451071  # C_3 N_3
angle_coeff     1                      fourier      183.483089        0.343737        0.374972        0.281246 # N_R Zn3f2 N_R
angle_coeff     2                      fourier      155.087435        0.343737        0.374972        0.281246 # N_R Zn3f2 O_2
angle_coeff     3                      fourier      183.341639        0.343737        0.374972        0.281246 # N_R Zn3f2 N_3
angle_coeff     4                      fourier      154.973760        0.343737        0.374972        0.281246 # O_2 Zn3f2 N_3
angle_coeff     5              cosine/periodic      159.573934              -1               3 # H_ C_R N_R
angle_coeff     6              cosine/periodic      424.885146              -1               3 # N_R C_R N_R
angle_coeff     7              cosine/periodic      114.578032              -1               3 # H_ C_R C_R
angle_coeff     8              cosine/periodic      307.398705              -1               3 # C_R C_R N_R
angle_coeff     9              cosine/periodic      198.274298              -1               3 # C_R C_R C_3
angle_coeff    10              cosine/periodic      273.097456              -1               3 # C_3 C_R N_R
angle_coeff    11              cosine/periodic      393.120049              -1               3 # O_2 C_R O_R
angle_coeff    12              cosine/periodic      266.629989              -1               3 # O_2 C_R C_3
angle_coeff    13              cosine/periodic      255.317313              -1               3 # O_R C_R C_3
angle_coeff    14                      fourier      117.318683        0.343737        0.374972        0.281246 # H_ C_3 C_3
angle_coeff    15                      fourier      170.007371        0.343737        0.374972        0.281246 # H_ C_3 N_R
angle_coeff    16                      fourier      121.777217        0.343737        0.374972        0.281246 # H_ C_3 C_R
angle_coeff    17                      fourier      303.594562        0.343737        0.374972        0.281246 # C_3 C_3 N_R
angle_coeff    18                      fourier      220.229931        0.343737        0.374972        0.281246 # C_3 C_3 C_R
angle_coeff    19                      fourier      312.548166        0.343737        0.374972        0.281246 # N_R C_3 C_R
angle_coeff    20                      fourier       75.498766        0.343737        0.374972        0.281246 # H_ C_3 H_
angle_coeff    21                      fourier      169.780468        0.343737        0.374972        0.281246 # H_ C_3 N_3
angle_coeff    22                      fourier      303.297032        0.343737        0.374972        0.281246 # C_3 C_3 N_3
angle_coeff    23              cosine/periodic      398.603153              -1               3 # N_R C_R O_R
angle_coeff    24                      fourier       51.536168        0.317506        0.313225        0.272502 # Zn3f2 N_3 H_
angle_coeff    25                      fourier      108.360206        0.317506        0.313225        0.272502 # Zn3f2 N_3 C_3
angle_coeff    26                      fourier       97.017167        0.317506        0.313225        0.272502 # H_ N_3 H_
angle_coeff    27                      fourier      144.695053        0.317506        0.313225        0.272502 # H_ N_3 C_3
angle_coeff    28              cosine/periodic       87.429320              -1               3 # Zn3f2 N_R C_R
angle_coeff    29              cosine/periodic      240.001032              -1               3 # C_R N_R C_R
angle_coeff    30              cosine/periodic      108.417222              -1               3 # H_ N_R C_3
angle_coeff    31              cosine/periodic      125.071223              -1               3 # H_ N_R C_R
angle_coeff    32              cosine/periodic      213.564697              -1               3 # C_3 N_R C_R
angle_coeff    33              cosine/periodic       84.412329              -1               3 # Zn3f2 O_2 C_R
dihedral_coeff     1        1.497136              -1               2 # H_ C_R N_R Zn3f2
dihedral_coeff     2        0.083333               1               3 # C_R C_R C_3 C_3
dihedral_coeff     3        2.245703              -1               2 # O_R C_R O_2 Zn3f2
dihedral_coeff     4        0.066219               1               3 # H_ C_3 C_3 C_R
dihedral_coeff     5        0.416667              -1               2 # H_ C_3 N_R H_
dihedral_coeff     6        0.030516               1               3 # H_ C_3 N_3 Zn3f2
improper_coeff     1        2.000000        1.000000       -1.000000        0.000000               0 # H_ C_R N_R N_R
pair_coeff 1 1 0.124 2.461553
pair_coeff 1 2 0.07386474125047755 2.5163434999999996
pair_coeff 1 3 0.11410521460476729 2.946202
pair_coeff 1 4 0.11410521460476729 2.946202
pair_coeff 1 5 0.09249864863877742 2.861121
pair_coeff 1 6 0.09249864863877742 2.861121
pair_coeff 1 7 0.08625543461139129 2.7898495
pair_coeff 1 8 0.08625543461139129 2.7898495
pair_coeff 2 2 0.044 2.571134
pair_coeff 2 3 0.0679705818718657 3.0009924999999997
pair_coeff 2 4 0.0679705818718657 3.0009924999999997
pair_coeff 2 5 0.05509990925582364 2.9159115
pair_coeff 2 6 0.05509990925582364 2.9159115
pair_coeff 2 7 0.05138093031466051 2.84464
pair_coeff 2 8 0.05138093031466051 2.84464
pair_coeff 3 3 0.105 3.430851
pair_coeff 3 4 0.105 3.430851
pair_coeff 3 5 0.08511756575466665 3.34577
pair_coeff 3 6 0.08511756575466665 3.34577
pair_coeff 3 7 0.07937253933193772 3.2744985
pair_coeff 3 8 0.07937253933193772 3.2744985
pair_coeff 4 4 0.105 3.430851
pair_coeff 4 5 0.08511756575466665 3.34577
pair_coeff 4 6 0.08511756575466665 3.34577
pair_coeff 4 7 0.07937253933193772 3.2744985
pair_coeff 4 8 0.07937253933193772 3.2744985
pair_coeff 5 5 0.069 3.2606889999999997
pair_coeff 5 6 0.069 3.2606889999999997
pair_coeff 5 7 0.06434283176858166 3.1894175
pair_coeff 5 8 0.06434283176858166 3.1894175
pair_coeff 6 6 0.069 3.2606889999999997
pair_coeff 6 7 0.06434283176858166 3.1894175
pair_coeff 6 8 0.06434283176858166 3.1894175
pair_coeff 7 7 0.06 3.118146
pair_coeff 7 8 0.06 3.118146
pair_coeff 8 8 0.06 3.118146

# Setup neighbor style
neighbor 1.0 nsq
neigh_modify once no every 1 delay 0 check yes

# Setup minimization style
min_style	     cg
min_modify	     dmax ${dmax} line quadratic
min_modify	     dmax 0.001 line quadratic

# Setup output
thermo		1
thermo_style custom step temp pe press pxx pyy pzz pxy pxz pyz lx ly lz vol
thermo_modify norm no

# Positive deformation

variable delta equal ${up}*${len0}
variable delta equal 0.01*${len0}
variable delta equal 0.01*37.8966394303209
variable deltaxy equal ${up}*xy
variable deltaxy equal 0.01*xy
variable deltaxz equal ${up}*xz
variable deltaxz equal 0.01*xz
variable deltayz equal ${up}*yz
variable deltayz equal 0.01*yz
if "${dir} == 1" then    "change_box all x delta 0 ${delta} xy delta ${deltaxy} xz delta ${deltaxz} remap units box"
change_box all x delta 0 ${delta} xy delta ${deltaxy} xz delta ${deltaxz} remap units box
change_box all x delta 0 0.378966394303209 xy delta ${deltaxy} xz delta ${deltaxz} remap units box
change_box all x delta 0 0.378966394303209 xy delta 2.07048934480085e-05 xz delta ${deltaxz} remap units box
[...]
      82            0    10296.479      -51.821   -27.009294   -209.19216    80.738449   -1332.5514    599.67443    3.3889337    37.896639    39.459637    30.158912    45099.264 
      83            0    10296.478     -53.1637   -34.631155   -211.52958    86.669639   -1345.6545    596.27539    2.0460194    37.896639    39.459637    30.158912    45099.264 
      84            0    10296.475   -55.760342   -36.710788   -220.08976    89.519522   -1350.7471    611.90488    3.9832047    37.896639    39.459637    30.158912    45099.264 
      85            0    10296.474   -57.290864    -35.91118    -223.4317    87.470291   -1347.1421    613.81665    4.8070074    37.896639    39.459637    30.158912    45099.264 
      86            0    10296.471   -58.103396   -35.181543   -219.39781    80.269159   -1348.6243     599.6674    4.0552103    37.896639    39.459637    30.158912    45099.264 
      87            0    10296.468   -57.989429   -38.897035   -211.32251    76.251255   -1347.7963    594.91413    1.5928035    37.896639    39.459637    30.158912    45099.264 
      88            0    10296.464   -57.112259   -41.406252   -208.40284    78.472312    -1340.549    595.54627  -0.90357254    37.896639    39.459637    30.158912    45099.264 
      89            0     10296.46   -56.294354   -37.073414   -217.48405    85.674406   -1338.0364    593.59888  -0.71476217    37.896639    39.459637    30.158912    45099.264 
      90            0    10296.456    -58.19302   -34.331122   -230.02861     89.78067    -1339.012    588.43598   0.44766265    37.896639    39.459637    30.158912    45099.264 
      91            0    10296.452   -64.427293   -41.675289   -237.20808    85.601494   -1356.4579    597.64347    1.7854055    37.896639    39.459637    30.158912    45099.264 
      92            0    10296.449   -66.911097     -48.4013   -235.30272    82.970729   -1366.1858    608.71536    1.8856041    37.896639    39.459637    30.158912    45099.264 
      93            0    10296.446   -65.642675   -52.042775   -229.50911    84.623862   -1362.9356     613.4029 -0.057210106    37.896639    39.459637    30.158912    45099.264 
      94            0    10296.444   -61.583205   -45.394926   -226.26438    86.909695   -1351.2802    617.41936   -3.2882147    37.896639    39.459637    30.158912    45099.264 
      95            0    10296.442   -60.742316    -41.02474   -225.70979     84.50758    -1337.821    614.68901     -4.94412    37.896639    39.459637    30.158912    45099.264 
      96            0     10296.44   -65.264207   -47.431402   -229.27679    80.915576   -1324.2249      597.834   -5.1107911    37.896639    39.459637    30.158912    45099.264 
      97            0    10296.438   -68.900263   -54.551502    -235.3604     83.21111   -1320.8311     595.7001   -4.2473096    37.896639    39.459637    30.158912    45099.264 
      98            0    10296.437   -70.430984   -59.943923   -245.58156    94.232532   -1319.6711    604.85476   -3.0865598    37.896639    39.459637    30.158912    45099.264 
      99            0    10296.435   -70.111323   -58.218494   -245.90776    93.792282   -1323.5948    599.37361   -4.1026403    37.896639    39.459637    30.158912    45099.264 
     100            0    10296.433   -69.641854   -51.831308   -240.08807    82.993816   -1336.0657    592.83485   -4.6102832    37.896639    39.459637    30.158912    45099.264 
     101            0    10296.432   -69.904609   -50.993861   -236.42175    77.701779    -1339.318    599.15881   -4.6697398    37.896639    39.459637    30.158912    45099.264 
     102            0    10296.431   -70.669312   -55.121718   -237.01993    80.133709   -1332.6148    604.10944   -5.8603742    37.896639    39.459637    30.158912    45099.264 
     103            0    10296.429   -71.723199   -61.690453   -244.81641    91.337261   -1316.3184    589.78932    -7.342429    37.896639    39.459637    30.158912    45099.264 
     104            0    10296.427   -72.100938   -64.275712   -247.90024    95.873137   -1311.6587    583.13084   -8.1892785    37.896639    39.459637    30.158912    45099.264 
     105            0    10296.425   -72.361129   -60.876791   -245.69961    89.493017   -1324.8946    591.26405   -6.4888893    37.896639    39.459637    30.158912    45099.264 
     106            0    10296.423   -73.593314   -58.556971    -244.8072    82.584233   -1331.9378    593.83726   -5.6696315    37.896639    39.459637    30.158912    45099.264 
     107            0    10296.421   -75.373602   -61.212283   -246.24488    81.336356   -1337.3028    594.10897   -8.0404007    37.896639    39.459637    30.158912    45099.264 
     108            0     10296.42   -76.735782   -65.639782   -249.64144    85.073879   -1343.1425    596.18631   -9.9877809    37.896639    39.459637    30.158912    45099.264 
     109            0    10296.419   -77.217607   -68.604088   -251.32509    88.276354   -1341.0678    597.34167    -10.51577    37.896639    39.459637    30.158912    45099.264 
     110            0    10296.418   -76.506434   -67.788933   -249.82704    88.096666   -1332.5771    595.67658   -9.2043327    37.896639    39.459637    30.158912    45099.264 
     111            0    10296.417   -76.794763   -65.752201    -249.5439    84.911806   -1326.8269    593.08638   -7.9723392    37.896639    39.459637    30.158912    45099.264 
     112            0    10296.417    -78.32032   -65.757174   -251.25751    82.053725    -1323.668    591.51608   -8.5138762    37.896639    39.459637    30.158912    45099.264 
     113            0    10296.416   -78.367893   -67.238786    -252.1707    84.305805   -1324.7914    591.21113   -9.1772189    37.896639    39.459637    30.158912    45099.264 
     114            0    10296.415   -77.752351   -69.176818   -253.26078    89.180546   -1328.5644     589.6122   -9.7190989    37.896639    39.459637    30.158912    45099.264 
     115            0    10296.415   -77.995795   -69.135249   -253.57567    88.723535   -1333.5145    592.25358   -10.320335    37.896639    39.459637    30.158912    45099.264 
     116            0    10296.414   -79.384775   -68.453185   -253.79197    84.090829   -1333.9029    597.81746   -10.818405    37.896639    39.459637    30.158912    45099.264 
     117            0    10296.414   -80.300079   -69.324356   -253.74838    82.172494   -1327.7907    594.74883   -10.342742    37.896639    39.459637    30.158912    45099.264 
     118            0    10296.414   -79.863539   -71.147028   -253.28248    84.838887   -1327.6662    593.89307   -10.312788    37.896639    39.459637    30.158912    45099.264 
     119            0    10296.413   -78.705028   -71.608778   -253.45884    88.952532   -1328.9445    598.31193   -10.787224    37.896639    39.459637    30.158912    45099.264 
     120            0    10296.412   -79.245133    -70.17773   -254.65101     87.09334   -1325.5486    595.57862   -11.509707    37.896639    39.459637    30.158912    45099.264 
     121            0    10296.411   -80.799231   -69.415421   -255.59679    82.614521   -1325.2194    592.07991   -12.093524    37.896639    39.459637    30.158912    45099.264 
     122            0    10296.411    -81.83259   -71.604522   -255.69398    81.800734    -1331.185     592.6293   -10.929206    37.896639    39.459637    30.158912    45099.264 
     123            0     10296.41    -82.27798   -74.629952    -256.3484    84.144416    -1337.552    594.39871   -9.7040092    37.896639    39.459637    30.158912    45099.264 
     124            0     10296.41     -81.7333   -73.387521   -258.62336    86.810978   -1335.7076    593.03748   -10.956423    37.896639    39.459637    30.158912    45099.264 
     125            0     10296.41   -81.431282   -72.143034   -259.49478    87.343968   -1334.3598    591.65321   -12.495313    37.896639    39.459637    30.158912    45099.264 
     126            0    10296.409    -81.85399   -74.288212   -256.16575    84.891995   -1337.0297    593.20687   -13.207882    37.896639    39.459637    30.158912    45099.264 
     127            0    10296.409    -81.85399   -74.288212   -256.16575    84.891995   -1337.0297    593.20687   -13.207882    37.896639    39.459637    30.158912    45099.264 
Loop time of 1.48478 on 8 procs for 118 steps with 3712 atoms

99.5% CPU use with 8 MPI tasks x 1 OpenMP threads

Minimization stats:
  Stopping criterion = linesearch alpha is zero
  Energy initial, next-to-last, final = 
      10326.8576644654   10296.4093590628   10296.4093590628
  Force two-norm initial, final = 226.89834 0.93892985
  Force max component initial, final = 6.5454556 0.046452519
  Final line search alpha, max atom move = 1.2146757e-08 5.6424745e-10
  Iterations, force evaluations = 118 247

MPI task timing breakdown:
Section |  min time  |  avg time  |  max time  |%varavg| %total
---------------------------------------------------------------
Pair    | 0.80046    | 1.0924     | 1.3721     |  18.7 | 73.57
Bond    | 0.05079    | 0.053445   | 0.054855   |   0.6 |  3.60
Neigh   | 0          | 0          | 0          |   0.0 |  0.00
Comm    | 0.030541   | 0.31082    | 0.60241    |  35.0 | 20.93
Output  | 0.0042827  | 0.005694   | 0.014248   |   4.3 |  0.38
Modify  | 0          | 0          | 0          |   0.0 |  0.00
Other   |            | 0.02244    |            |       |  1.51

Nlocal:        464.000 ave         464 max         464 min
Histogram: 8 0 0 0 0 0 0 0 0 0
Nghost:        7145.00 ave        7145 max        7145 min
Histogram: 8 0 0 0 0 0 0 0 0 0
Neighs:        195615.0 ave      248007 max      143211 min
Histogram: 1 1 1 1 0 0 1 1 1 1

Total # of neighbors = 1564922
Ave neighs/atom = 421.58459
Ave special neighs/atom = 13.034483
Neighbor list builds = 0
Dangerous builds = 0

# Obtain new stress tensor

variable tmp equal pe
variable e1 equal ${tmp}
variable e1 equal 10296.4093590628
variable tmp equal press
variable p1 equal ${tmp}
variable p1 equal -81.8539896173975
variable tmp equal pxx
variable pxx1 equal ${tmp}
variable pxx1 equal -74.2882123290749
variable tmp equal pyy
variable pyy1 equal ${tmp}
variable pyy1 equal -256.16575153547
variable tmp equal pzz
variable pzz1 equal ${tmp}
variable pzz1 equal 84.8919950123524
variable tmp equal pxy
variable pxy1 equal ${tmp}
variable pxy1 equal -1337.02970188874
variable tmp equal pxz
variable pxz1 equal ${tmp}
variable pxz1 equal 593.206870800485
variable tmp equal pyz
variable pyz1 equal ${tmp}
variable pyz1 equal -13.2078822004689

# Compute elastic constant from pressure tensor

variable C1pos equal ${d1}
variable C1pos equal 0.779909102400956
variable C2pos equal ${d2}
variable C2pos equal 2.61056159132859
variable C3pos equal ${d3}
variable C3pos equal -0.822742080417831
variable C4pos equal ${d4}
variable C4pos equal 0.466902487094993
variable C5pos equal ${d5}
variable C5pos equal -6.09639847622112
variable C6pos equal ${d6}
variable C6pos equal 13.5403235628639

# Combine positive and negative

variable C1${dir} equal 0.5*(${C1neg}+${C1pos})
variable C16 equal 0.5*(${C1neg}+${C1pos})
variable C16 equal 0.5*(-0.735749360855382+${C1pos})
variable C16 equal 0.5*(-0.735749360855382+0.779909102400956)
variable C2${dir} equal 0.5*(${C2neg}+${C2pos})
variable C26 equal 0.5*(${C2neg}+${C2pos})
variable C26 equal 0.5*(-2.58684706145191+${C2pos})
variable C26 equal 0.5*(-2.58684706145191+2.61056159132859)
variable C3${dir} equal 0.5*(${C3neg}+${C3pos})
variable C36 equal 0.5*(${C3neg}+${C3pos})
variable C36 equal 0.5*(0.821440658153387+${C3pos})
variable C36 equal 0.5*(0.821440658153387+-0.822742080417831)
variable C4${dir} equal 0.5*(${C4neg}+${C4pos})
variable C46 equal 0.5*(${C4neg}+${C4pos})
variable C46 equal 0.5*(-0.435998486643237+${C4pos})
variable C46 equal 0.5*(-0.435998486643237+0.466902487094993)
variable C5${dir} equal 0.5*(${C5neg}+${C5pos})
variable C56 equal 0.5*(${C5neg}+${C5pos})
variable C56 equal 0.5*(-6.12482998528296+${C5pos})
variable C56 equal 0.5*(-6.12482998528296+-6.09639847622112)
variable C6${dir} equal 0.5*(${C6neg}+${C6pos})
variable C66 equal 0.5*(${C6neg}+${C6pos})
variable C66 equal 0.5*(13.5643063113224+${C6pos})
variable C66 equal 0.5*(13.5643063113224+13.5403235628639)

# Delete dir to make sure it is not reused

variable dir delete

# Output final values

variable C11all equal ${C11}
variable C11all equal 40.987692297546
variable C22all equal ${C22}
variable C22all equal 18.5304380730234
variable C33all equal ${C33}
variable C33all equal 28.6739844645599

variable C12all equal 0.5*(${C12}+${C21})
variable C12all equal 0.5*(12.5796204350935+${C21})
variable C12all equal 0.5*(12.5796204350935+12.5259706841287)
variable C13all equal 0.5*(${C13}+${C31})
variable C13all equal 0.5*(8.06526075280015+${C31})
variable C13all equal 0.5*(8.06526075280015+8.16193803853256)
variable C23all equal 0.5*(${C23}+${C32})
variable C23all equal 0.5*(13.8062100361935+${C32})
variable C23all equal 0.5*(13.8062100361935+13.6845668212095)

variable C44all equal ${C44}
variable C44all equal 18.8642494778389
variable C55all equal ${C55}
variable C55all equal 14.6205250137819
variable C66all equal ${C66}
variable C66all equal 13.5523149370932

variable C14all equal 0.5*(${C14}+${C41})
variable C14all equal 0.5*(-3.82218445431008+${C41})
variable C14all equal 0.5*(-3.82218445431008+-4.17209002809246)
variable C15all equal 0.5*(${C15}+${C51})
variable C15all equal 0.5*(-0.0106257255992075+${C51})
variable C15all equal 0.5*(-0.0106257255992075+-0.00982284835207836)
variable C16all equal 0.5*(${C16}+${C61})
variable C16all equal 0.5*(0.022079870772787+${C61})
variable C16all equal 0.5*(0.022079870772787+-0.00547976098993852)

variable C24all equal 0.5*(${C24}+${C42})
variable C24all equal 0.5*(-0.0861508110196549+${C42})
variable C24all equal 0.5*(-0.0861508110196549+-0.329357295319533)
variable C25all equal 0.5*(${C25}+${C52})
variable C25all equal 0.5*(-0.02601989283054+${C52})
variable C25all equal 0.5*(-0.02601989283054+-0.00212014955662405)
variable C26all equal 0.5*(${C26}+${C62})
variable C26all equal 0.5*(0.0118572649383399+${C62})
variable C26all equal 0.5*(0.0118572649383399+-0.00144991135528325)

variable C34all equal 0.5*(${C34}+${C43})
variable C34all equal 0.5*(-10.2156725168853+${C43})
variable C34all equal 0.5*(-10.2156725168853+-10.0738134923849)
variable C35all equal 0.5*(${C35}+${C53})
variable C35all equal 0.5*(0.00458640711326896+${C53})
variable C35all equal 0.5*(0.00458640711326896+-0.00392048939411473)
variable C36all equal 0.5*(${C36}+${C63})
variable C36all equal 0.5*(-0.000650711132222037+${C63})
variable C36all equal 0.5*(-0.000650711132222037+-0.0061888074692239)

variable C45all equal 0.5*(${C45}+${C54})
variable C45all equal 0.5*(-0.0187525589375705+${C54})
variable C45all equal 0.5*(-0.0187525589375705+-0.0016262866481669)
variable C46all equal 0.5*(${C46}+${C64})
variable C46all equal 0.5*(0.015452000225878+${C64})
variable C46all equal 0.5*(0.015452000225878+0.0026307470771947)
variable C56all equal 0.5*(${C56}+${C65})
variable C56all equal 0.5*(-6.11061423075204+${C65})
variable C56all equal 0.5*(-6.11061423075204+-6.77059664392014)

# Average moduli for cubic crystals

variable C11cubic equal (${C11all}+${C22all}+${C33all})/3.0
variable C11cubic equal (40.987692297546+${C22all}+${C33all})/3.0
variable C11cubic equal (40.987692297546+18.5304380730234+${C33all})/3.0
variable C11cubic equal (40.987692297546+18.5304380730234+28.6739844645599)/3.0
variable C12cubic equal (${C12all}+${C13all}+${C23all})/3.0
variable C12cubic equal (12.5527955596111+${C13all}+${C23all})/3.0
variable C12cubic equal (12.5527955596111+8.11359939566636+${C23all})/3.0
variable C12cubic equal (12.5527955596111+8.11359939566636+13.7453884287015)/3.0
variable C44cubic equal (${C44all}+${C55all}+${C66all})/3.0
variable C44cubic equal (18.8642494778389+${C55all}+${C66all})/3.0
variable C44cubic equal (18.8642494778389+14.6205250137819+${C66all})/3.0
variable C44cubic equal (18.8642494778389+14.6205250137819+13.5523149370932)/3.0

variable bulkmodulus equal (${C11cubic}+2*${C12cubic})/3.0
variable bulkmodulus equal (29.3973716117098+2*${C12cubic})/3.0
variable bulkmodulus equal (29.3973716117098+2*11.4705944613263)/3.0
variable shearmodulus1 equal ${C44cubic}
variable shearmodulus1 equal 15.6790298095713
variable shearmodulus2 equal (${C11cubic}-${C12cubic})/2.0
variable shearmodulus2 equal (29.3973716117098-${C12cubic})/2.0
variable shearmodulus2 equal (29.3973716117098-11.4705944613263)/2.0
variable poissonratio equal 1.0/(1.0+${C11cubic}/${C12cubic})
variable poissonratio equal 1.0/(1.0+29.3973716117098/${C12cubic})
variable poissonratio equal 1.0/(1.0+29.3973716117098/11.4705944613263)

# For Stillinger-Weber silicon, the analytical results
# are known to be (E. R. Cowley, 1988):
#               C11 = 151.4 GPa
#               C12 = 76.4 GPa
#               C44 = 56.4 GPa

print "========================================="
=========================================
print "Components of the Elastic Constant Tensor"
Components of the Elastic Constant Tensor
print "========================================="
=========================================

print "Elastic Constant C11all = ${C11all} ${cunits}"
Elastic Constant C11all = 40.987692297546 GPa
print "Elastic Constant C22all = ${C22all} ${cunits}"
Elastic Constant C22all = 18.5304380730234 GPa
print "Elastic Constant C33all = ${C33all} ${cunits}"
Elastic Constant C33all = 28.6739844645599 GPa

print "Elastic Constant C12all = ${C12all} ${cunits}"
Elastic Constant C12all = 12.5527955596111 GPa
print "Elastic Constant C13all = ${C13all} ${cunits}"
Elastic Constant C13all = 8.11359939566636 GPa
print "Elastic Constant C23all = ${C23all} ${cunits}"
Elastic Constant C23all = 13.7453884287015 GPa

print "Elastic Constant C44all = ${C44all} ${cunits}"
Elastic Constant C44all = 18.8642494778389 GPa
print "Elastic Constant C55all = ${C55all} ${cunits}"
Elastic Constant C55all = 14.6205250137819 GPa
print "Elastic Constant C66all = ${C66all} ${cunits}"
Elastic Constant C66all = 13.5523149370932 GPa

print "Elastic Constant C14all = ${C14all} ${cunits}"
Elastic Constant C14all = -3.99713724120127 GPa
print "Elastic Constant C15all = ${C15all} ${cunits}"
Elastic Constant C15all = -0.0102242869756429 GPa
print "Elastic Constant C16all = ${C16all} ${cunits}"
Elastic Constant C16all = 0.00830005489142424 GPa

print "Elastic Constant C24all = ${C24all} ${cunits}"
Elastic Constant C24all = -0.207754053169594 GPa
print "Elastic Constant C25all = ${C25all} ${cunits}"
Elastic Constant C25all = -0.014070021193582 GPa
print "Elastic Constant C26all = ${C26all} ${cunits}"
Elastic Constant C26all = 0.00520367679152832 GPa

print "Elastic Constant C34all = ${C34all} ${cunits}"
Elastic Constant C34all = -10.1447430046351 GPa
print "Elastic Constant C35all = ${C35all} ${cunits}"
Elastic Constant C35all = 0.000332958859577115 GPa
print "Elastic Constant C36all = ${C36all} ${cunits}"
Elastic Constant C36all = -0.00341975930072297 GPa

print "Elastic Constant C45all = ${C45all} ${cunits}"
Elastic Constant C45all = -0.0101894227928687 GPa
print "Elastic Constant C46all = ${C46all} ${cunits}"
Elastic Constant C46all = 0.00904137365153635 GPa
print "Elastic Constant C56all = ${C56all} ${cunits}"
Elastic Constant C56all = -6.44060543733609 GPa

print "========================================="
=========================================
print "Average properties for a cubic crystal"
Average properties for a cubic crystal
print "========================================="
=========================================

print "Bulk Modulus = ${bulkmodulus} ${cunits}"
Bulk Modulus = 17.4461868447875 GPa
print "Shear Modulus 1 = ${shearmodulus1} ${cunits}"
Shear Modulus 1 = 15.6790298095713 GPa
print "Shear Modulus 2 = ${shearmodulus2} ${cunits}"
Shear Modulus 2 = 8.96338857519175 GPa
print "Poisson Ratio = ${poissonratio}"
Poisson Ratio = 0.280674463731005
Total wall time: 0:00:22
