Created on Thu Jan 28 16:46:12 2021 

        1248 atoms
        1488 bonds
        2688 angles
        3360 dihedrals
        2016 impropers

           4 atom types
           6 bond types
           8 angle types
           3 dihedral types
           1 improper types
           0.000000  35.478000 xlo xhi
           0.000000  35.200363 ylo yhi
           0.000000  34.865139 zlo zhi
          -4.097104  -4.192123  -4.674364 xy xz yz

Masses

    1    63.546000000 # Cu4+2
    2     1.007940000 # H_
    3    12.010700000 # C_R
    4    15.999400000 # O_2

Bond Coeffs

    1       70.296579        3.032715  # Cu4+2 Cu4+2
    2      221.999373        2.029549  # Cu4+2 O_2
    3      357.440381        1.081418  # H_ C_R
    4      462.655054        1.379256  # C_R C_R
    5      391.669513        1.458000  # C_R C_R
    6      714.557442        1.269010  # C_R O_2

Angle Coeffs

    1      105.916453               1               4 # Cu4+2 Cu4+2 O_2
    2      222.868952               1               4 # O_2 Cu4+2 O_2
    3      222.595017              -1               3 # C_R C_R C_R
    4      204.366560              -1               3 # C_R C_R C_R
    5      114.578032              -1               3 # H_ C_R C_R
    6      275.428492              -1               3 # C_R C_R O_2
    7      413.556852              -1               3 # O_2 C_R O_2
    8      154.420358              -1               3 # Cu4+2 O_2 C_R

Dihedral Coeffs

    1        1.497136              -1               2 # C_R C_R C_R H_
    2        0.555556              -1               2 # C_R C_R C_R O_2
    3        2.245703              -1               2 # C_R C_R O_2 Cu4+2

Improper Coeffs

    1        2.000000        1.000000       -1.000000        0.000000               0 # C_R C_R C_R C_R

Pair Coeffs

    1        0.005000        3.113691 # Cu4+2 Cu4+2
    2        0.044000        2.571134 # H_ H_
    3        0.105000        3.430851 # C_R C_R
    4        0.060000        3.118146 # O_2 O_2

Atoms

       1      444        1     0.92675    1.94530   13.72177   15.98601
       2      444        1     0.92675   13.25050    3.27616   15.34129
       3      444        1     0.92675   13.66854   15.39573    5.50147
       4      444        1     0.92675   12.79727    0.79991   14.42402
       5      444        1     0.92675   12.95002   14.89228    3.00209
       6      444        1     0.92675   -0.50051   13.08144   15.18154
       7      444        2     0.10418    2.26195    7.06059   13.06752
       8      444        2     0.10418    1.25447    9.33009   13.29206
       9      444        2     0.10418    2.98089    6.85558   17.28516
      10      444        2     0.10418    2.11348    9.27246   17.51213
      11      444        2     0.10418    1.12323    4.49199   15.66885
      12      444        2     0.10418   -0.21937    2.92589   14.27236
      13      444        2     0.10418   11.63920    3.20837    7.98841
      14      444        2     0.10418   11.67763    2.22692   10.34299
      15      444        2     0.10418   14.93243    5.85538    9.35310
      16      444        2     0.10418   14.75441    4.88312   11.52746
      17      444        2     0.10418   13.46573    3.23039    6.19975
      18      444        2     0.10418   15.00964    2.04042    5.02591
      19      444        2     0.10418    6.65380   12.79601    4.89552
      20      444        2     0.10418    9.14024   12.95226    4.26512
      21      444        2     0.10418    6.99190   16.67321    6.65732
      22      444        2     0.10418    9.51537   16.52572    6.47271
      23      444        2     0.10418    4.71261   14.81070    4.04035
      24      444        2     0.10418    3.37947   15.96845    2.87401
      25      444        2     0.10418    6.24063    2.17895   12.95135
      26      444        2     0.10418    8.63428    1.58377   13.16553
      27      444        2     0.10418    6.54375    4.13730   16.90084
      28      444        2     0.10418    9.04132    3.91903   16.78659
      29      444        2     0.10418    4.09783    1.84695   14.36883
      30      444        2     0.10418    2.98458    0.55121   15.74140
      31      444        2     0.10418    2.27679   12.49981    8.73971
      32      444        2     0.10418    1.23180   12.13302   10.91467
      33      444        2     0.10418    3.99571   16.18788    9.96512
      34      444        2     0.10418    3.17889   15.67049   12.35788
      35      444        2     0.10418    1.48953   15.16913    7.09059
      36      444        2     0.10418    0.13549   14.76279    5.48418
      37      444        2     0.10418   13.27192    8.15685    3.42071
      38      444        2     0.10418   12.89761   10.54097    3.02975
      39      444        2     0.10418   15.27716    9.03744    7.19031
      40      444        2     0.10418   14.91815   11.45434    6.75495
      41      444        2     0.10418   15.11618    6.34562    3.78667
      42      444        2     0.10418   14.29976    5.10388    2.17388
      43      444        2     0.10418    5.16316    5.91573   15.15298
      44      444        2     0.10418   -1.01726   -1.01331   15.83247
      45      444        2     0.10418   13.74068    7.21847    7.71457
      46      444        2     0.10418   14.94311    1.06285    0.79822
      47      444        2     0.10418    5.56994   14.56509    8.25338
      48      444        2     0.10418   -0.58345   15.50916    1.31861
      49      444        3    -0.02055    1.75645    9.46615   15.40921
      50      444        3    -0.08836    2.19028    7.48642   14.03022
      51      444        3    -0.08836    1.71619    8.80341   14.14859
      52      444        3    -0.02055    2.60381    6.79839   15.22460
      53      444        3    -0.08836    2.70349    7.46114   16.41081
      54      444        3    -0.08836    2.28127    8.81962   16.55264
      55      444        3     0.66798    1.42918   10.91730   15.41907
      56      444        3     0.66798   33.20504    1.32254   14.86911
      57      444        3    -0.02055    3.00239    5.35835   15.12502
      58      444        3    -0.08836    2.11529    4.32497   15.24112
      59      444        3    -0.02055   -0.80033    0.99500   14.97792
      60      444        3    -0.08836    0.17758    2.05118   14.67495
      61      444        3    -0.02055   13.19144    3.52883   11.06613
      62      444        3    -0.08836   12.45665    3.52013    8.71789
      63      444        3    -0.08836   12.34824    3.05264   10.07867
      64      444        3    -0.02055   13.37312    4.57978    8.41766
      65      444        3    -0.08836   14.22110    5.01933    9.48259
      66      444        3    -0.08836   14.13151    4.47423   10.72222
      67      444        3     0.66798   13.22364    2.92592   12.43713
      68      444        3     0.66798   15.19324   -0.08597    3.23461
      69      444        3    -0.02055   13.54617    5.13867    7.08017
      70      444        3    -0.08836   13.63917    4.22778    5.98537
      71      444        3    -0.02055   15.04566    1.37224    2.91329
      72      444        3    -0.08836   14.88370    2.33841    3.94942
      73      444        3    -0.02055    9.46989   14.72870    5.44304
      74      444        3    -0.08836    7.27001   13.69235    5.07351
      75      444        3    -0.08836    8.66950   13.64250    4.95751
      76      444        3    -0.02055    6.66873   14.75224    5.76683
      77      444        3    -0.08836    7.47288   15.80348    6.28709
      78      444        3    -0.08836    8.88964   15.69700    6.21677
      79      444        3     0.66798   10.83524   14.95731    5.00081
      80      444        3     0.66798    2.03562   15.64534    0.54659
      81      444        3    -0.02055    5.26066   14.68425    6.11409
      82      444        3    -0.08836    4.31459   14.81252    5.10063
      83      444        3    -0.02055    1.52131   15.58982    1.96021
      84      444        3    -0.08836    2.36051   15.63574    3.05147
      85      444        3    -0.02055    8.98981    2.80502   14.88801
      86      444        3    -0.08836    6.83468    2.60406   13.79551
      87      444        3    -0.08836    8.16741    2.22720   13.90711
      88      444        3    -0.02055    6.23627    3.40126   14.85579
      89      444        3    -0.08836    7.01788    3.81087   15.98124
      90      444        3    -0.08836    8.42618    3.57396   15.91806
      91      444        3     0.66798   10.47366    2.49103   14.86702
      92      444        3     0.66798    1.64109   -1.80914   15.62227
      93      444        3    -0.02055    4.80029    3.84077   14.71773
      94      444        3    -0.08836    3.85987    2.84492   14.63680
      95      444        3    -0.02055    1.07286   -0.41684   15.60103
      96      444        3    -0.08836    1.93407    0.68136   15.53326
      97      444        3    -0.02055    2.09217   13.91306   11.76514
      98      444        3    -0.08836    2.33478   13.24570    9.45281
      99      444        3    -0.08836    1.79575   12.98748   10.72978
     100      444        3    -0.02055    3.05063   14.40124    9.20903
     101      444        3    -0.08836    3.33853   15.33859   10.24087
     102      444        3    -0.08836    2.84201   15.08602   11.50905
     103      444        3     0.66798    1.56699   13.69072   13.10849
     104      444        3     0.66798   -1.85256   14.92013    3.74978
     105      444        3    -0.02055    3.45227   14.67444    7.77308
     106      444        3    -0.08836    2.53689   15.02267    6.78301
     107      444        3    -0.02055   -0.40132   15.08118    3.41914
     108      444        3    -0.08836    0.53008   14.91498    4.49262
     109      444        3    -0.02055   13.93428   11.16793    4.82373
     110      444        3    -0.08836   13.66488    8.82176    4.16105
     111      444        3    -0.08836   13.49510   10.20865    3.93551
     112      444        3    -0.02055   14.33862    8.38250    5.33726
     113      444        3    -0.08836   14.82258    9.34145    6.25393
     114      444        3    -0.08836   14.55805   10.73840    6.04056
     115      444        3     0.66798   13.60392   12.56748    4.64794
     116      444        3     0.66798   10.69812   -1.16532   34.66459
     117      444        3    -0.02055   14.43659    6.92663    5.70676
     118      444        3    -0.08836   14.65965    5.98906    4.68396
     119      444        3    -0.02055   14.64548    3.08143    1.25024
     120      444        3    -0.08836   14.41931    4.07231    2.31195
     121      444        3    -0.08836    4.41482    5.10111   15.05152
     122      444        3    -0.02055    2.51061    3.05429   15.01495
     123      444        3    -0.02055    1.54571    1.88614   14.97099
     124      444        3    -0.08836   -0.31277   -0.20773   15.51837
     125      444        3    -0.08836   13.85583    6.49048    6.89207
     126      444        3    -0.02055   14.33467    4.64340    4.80588
     127      444        3    -0.02055   14.58569    3.67497    3.65247
     128      444        3    -0.08836   14.90751    1.77007    1.58856
     129      444        3    -0.08836    4.83566   14.61595    7.44922
     130      444        3    -0.02055    2.93105   15.02520    5.41599
     131      444        3    -0.02055    1.96538   15.10108    4.25871
     132      444        3    -0.08836    0.12259   15.36154    2.12778
     133      444        4    -0.56768    2.14257   11.75017   16.04058
     134      444        4    -0.56768   14.77727    0.81869   14.24283
     135      444        4    -0.56768   32.80609    2.39529   15.41067
     136      444        4    -0.56768    0.24226   11.23972   15.06551
     137      444        4    -0.56768   13.34725    3.73089   13.39118
     138      444        4    -0.56768   12.80545   16.86151    2.90690
     139      444        4    -0.56768   15.34820   -0.42678    4.46005
     140      444        4    -0.56768   12.82957    1.71634   12.61647
     141      444        4    -0.56768   11.71967   15.01023    5.88419
     142      444        4    -0.56768   -0.93257   12.93642   17.09420
     143      444        4    -0.56768    3.22150   16.09179    0.39133
     144      444        4    -0.56768   11.08592   14.77198    3.78803
     145      444        4    -0.56768   11.25233    3.35641   15.38780
     146      444        4    -0.56768   -0.87255   15.02755   15.35074
     147      444        4    -0.56768    2.81151   -2.06790   16.10334
     148      444        4    -0.56768   10.83914    1.30274   14.60609
     149      444        4    -0.56768    2.44679   13.67049   14.05724
     150      444        4    -0.56768   14.93359   15.13828    2.59289
     151      444        4    -0.56768   -2.23236   15.16392    4.98938
     152      444        4    -0.56768    0.33377   13.44321   13.38508
     153      444        4    -0.56768   13.84403   13.39670    5.63117
     154      444        4    -0.56768   13.05017    0.32570   16.36723
     155      444        4    -0.56768   10.95853    0.04665   34.43602
     156      444        4    -0.56768   13.19786   13.05141    3.54526
     157      444        1     0.92675   -0.03520   11.71880   33.49619
     158      444        1     0.92675   11.32947    0.82884   32.61526
     159      444        1     0.92675   11.63456   12.58791   22.67970
     160      444        1     0.92675   10.66603   -1.60606   31.81461
     161      444        1     0.92675   11.06198   12.14355   20.14654
     162      444        1     0.92675   -2.41466   11.06457   32.44989
     163      444        2     0.10418   -0.61673    4.51207   31.23045
     164      444        2     0.10418   -1.06428    6.92055   31.18561
     165      444        2     0.10418    5.60481    9.83357    0.12868
     166      444        2     0.10418    5.00421   12.20927    0.11352
     167      444        2     0.10418   -0.80032    2.35020   33.55438
     168      444        2     0.10418   -2.11564    1.04277   32.29844
     169      444        2     0.10418    9.07559    2.20399   26.07233
     170      444        2     0.10418    9.01543    1.19451   28.22267
     171      444        2     0.10418   13.32590    1.45408   25.82684
     172      444        2     0.10418   13.35108    0.52979   28.03408
     173      444        2     0.10418   11.29143    0.41465   23.46807
     174      444        2     0.10418   13.16803   -0.54561   22.34915
     175      444        2     0.10418    4.67717   10.18892   22.29413
     176      444        2     0.10418    6.98666   10.18542   21.58584
     177      444        2     0.10418    5.28965   13.78387   24.64917
     178      444        2     0.10418    7.63069   13.93427   23.73636
     179      444        2     0.10418    2.66926   12.12401   21.45067
     180      444        2     0.10418    1.38163   13.36541   20.35298
     181      444        2     0.10418    4.13254    0.66840   30.37796
     182      444        2     0.10418    6.44126   -0.16398   30.32939
     183      444        2     0.10418    4.91470    2.27130   34.26413
     184      444        2     0.10418    7.12238    1.43746   34.18391
     185      444        2     0.10418    2.28074   -0.09481   32.04776
     186      444        2     0.10418    1.11155   -1.78673   33.01363
     187      444        2     0.10418   -0.27050   10.97556   25.92798
     188      444        2     0.10418   -1.02696   10.44392   28.18969
     189      444        2     0.10418    2.44120   13.84167   27.44270
     190      444        2     0.10418    1.90413   13.10523   29.80398
     191      444        2     0.10418   -0.39831   13.33303   24.15785
     192      444        2     0.10418   -1.67427   11.96475   22.87167
     193      444        2     0.10418   10.49809    5.49396   20.79235
     194      444        2     0.10418   10.19295    7.79924   20.44886
     195      444        2     0.10418   12.89913    6.18754   24.38018
     196      444        2     0.10418   12.50715    8.56050   23.99977
     197      444        2     0.10418   12.67769    3.65648   21.00255
     198      444        2     0.10418   11.71608    2.28109   19.39394
     199      444        2     0.10418    3.07250    3.94866   33.06516
     200      444        2     0.10418   -3.05671   -3.07816   32.92367
     201      444        2     0.10418   11.07221    4.58532   24.85836
     202      444        2     0.10418   13.62103   -1.43345   18.25723
     203      444        2     0.10418    3.53426   12.51094   25.64275
     204      444        2     0.10418   -2.76959   13.44549   18.98278
     205      444        3    -0.02055   -0.34200    7.38186   33.14674
     206      444        3    -0.08836   -0.30252    5.12223   32.10061
     207      444        3    -0.08836   -0.57246    6.51305   32.06240
     208      444        3    -0.02055    0.43890    4.68166   33.20674
     209      444        3    -0.08836    0.83766    5.53502   34.22941
     210      444        3    -0.08836    0.46827    6.92344   34.18889
     211      444        3     0.66798   -0.57797    8.88403   32.98821
     212      444        3     0.66798   -4.17284   -0.62329   32.75053
     213      444        3    -0.02055    1.03415    3.34127   33.13374
     214      444        3    -0.08836    0.18555    2.23233   33.16281
     215      444        3    -0.02055   -2.74564   -0.96268   32.79153
     216      444        3    -0.08836   -1.75035    0.08583   32.67512
     217      444        3    -0.02055   11.16012    0.93900   28.38591
     218      444        3    -0.08836    9.98440    1.86491   26.43694
     219      444        3    -0.08836    9.96845    1.36904   27.74557
     220      444        3    -0.02055   11.19557    1.92313   25.76565
     221      444        3    -0.08836   12.40209    1.56955   26.38730
     222      444        3    -0.08836   12.39335    0.98106   27.65893
     223      444        3     0.66798   11.13277    0.44337   29.75830
     224      444        3     0.66798   13.43699   -2.61097   20.59480
     225      444        3    -0.02055   11.22601    2.40065   24.39043
     226      444        3    -0.08836   11.46837    1.50037   23.31470
     227      444        3    -0.02055   13.29640   -1.15929   20.29869
     228      444        3    -0.08836   12.91443   -0.28235   21.30612
     229      444        3    -0.02055    7.33989   12.20423   22.35330
     230      444        3    -0.08836    5.23848   11.07441   22.46382
     231      444        3    -0.08836    6.59101   11.07186   22.10425
     232      444        3    -0.02055    4.74270   12.13379   23.21823
     233      444        3    -0.08836    5.56964   13.17269   23.71342
     234      444        3    -0.08836    6.89716   13.19488   23.25278
     235      444        3     0.66798    8.80815   12.20210   22.02239
     236      444        3     0.66798   -0.13435   13.28245   18.00230
     237      444        3    -0.02055    3.31358   12.33362   23.48341
     238      444        3    -0.08836    2.35032   12.36569   22.43631
     239      444        3    -0.02055   -0.63814   13.29355   19.41291
     240      444        3    -0.08836    0.36143   13.13918   20.44858
     241      444        3    -0.02055    6.99197    0.53135   32.26162
     242      444        3    -0.08836    4.78873    0.90098   31.19656
     243      444        3    -0.08836    6.14404    0.44052   31.15012
     244      444        3    -0.02055    4.29274    1.49570   32.35642
     245      444        3    -0.08836    5.23900    1.78845   33.37204
     246      444        3    -0.08836    6.52808    1.24896   33.37239
     247      444        3     0.66798    8.44151    0.16527   32.23300
     248      444        3     0.66798   -0.35658   -3.90994   33.01125
     249      444        3    -0.02055    2.84773    1.86077   32.55306
     250      444        3    -0.08836    1.88416    0.85661   32.26134
     251      444        3    -0.02055   -0.89124   -2.50627   33.04898
     252      444        3    -0.08836    0.03456   -1.49490   32.93166
     253      444        3    -0.02055    0.19551   11.97681   29.15838
     254      444        3    -0.08836    0.01630   11.61673   26.78082
     255      444        3    -0.08836   -0.41647   11.36961   28.05113
     256      444        3    -0.02055    1.01067   12.56892   26.53673
     257      444        3    -0.08836    1.73891   13.07302   27.60325
     258      444        3    -0.08836    1.31183   12.78168   28.89989
     259      444        3     0.66798   -0.27435   11.64335   30.52443
     260      444        3     0.66798   -3.85447   12.68807   21.29123
     261      444        3    -0.02055    1.49423   12.81056   25.10297
     262      444        3    -0.08836    0.59414   12.88950   24.01926
     263      444        3    -0.02055   -2.42117   12.85019   21.00956
     264      444        3    -0.08836   -1.40715   12.41704   21.93544
     265      444        3    -0.02055   11.47877    8.41125   22.13169
     266      444        3    -0.08836   11.02438    6.13208   21.45210
     267      444        3    -0.08836   10.85904    7.50277   21.25372
     268      444        3    -0.02055   11.77685    5.62793   22.55123
     269      444        3    -0.08836   12.38758    6.50355   23.41334
     270      444        3    -0.08836   12.14546    7.88506   23.27471
     271      444        3     0.66798   11.43636    9.86011   21.90162
     272      444        3     0.66798   13.14858    1.14083   17.36437
     273      444        3    -0.02055   11.81962    4.22004   22.89500
     274      444        3    -0.08836   12.20686    3.32275   21.90988
     275      444        3    -0.02055   12.92731    0.59114   18.72847
     276      444        3    -0.08836   12.33558    1.37799   19.71345
     277      444        3    -0.08836    2.38068    3.13956   32.96551
     278      444        3    -0.02055    0.57757    0.95595   32.73676
     279      444        3    -0.02055   -0.37753   -0.16589   32.83843
     280      444        3    -0.08836   -2.28539   -2.27481   32.96879
     281      444        3    -0.08836   11.30475    3.78571   24.10562
     282      444        3    -0.02055   11.89769    1.95580   22.08222
     283      444        3    -0.02055   12.29849    0.94447   21.03878
     284      444        3    -0.08836   13.29285   -0.71426   19.00673
     285      444        3    -0.08836    2.85633   12.59602   24.81230
     286      444        3    -0.02055    0.97094   12.54046   22.76683
     287      444        3    -0.02055   -0.02979   12.75704   21.73716
     288      444        3    -0.08836   -2.03945   13.21032   19.73175
     289      444        4    -0.56768    0.35241    9.73205   33.37751
     290      444        4    -0.56768   12.62778   -1.86992   31.72236
     291      444        4    -0.56768   30.84804    0.54796   33.03228
     292      444        4    -0.56768   -1.66907    9.26092   32.42060
     293      444        4    -0.56768   11.43558    1.27149   30.64025
     294      444        4    -0.56768   10.78218   14.12827   19.93453
     295      444        4    -0.56768    9.65239   32.27755   21.79486
     296      444        4    -0.56768   10.87927   -0.81339   29.93545
     297      444        4    -0.56768    9.68552   12.42904   22.95151
     298      444        4    -0.56768   -2.93398   10.81824   34.44449
     299      444        4    -0.56768    1.09817   13.61531   17.79667
     300      444        4    -0.56768    9.12868   12.00205   20.81627
     301      444        4    -0.56768    9.32896    1.08724   32.54228
     302      444        4    -0.56768   -2.87117   12.99223   32.62561
     303      444        4    -0.56768    0.85817   -4.06630   33.34017
     304      444        4    -0.56768    8.78846   -0.98301   31.86346
     305      444        4    -0.56768    0.50061   11.96591   31.54751
     306      444        4    -0.56768   13.07061   12.50352   19.90883
     307      444        4    -0.56768   -4.33796   12.80423   22.48292
     308      444        4    -0.56768   -1.53382   11.48787   30.67881
     309      444        4    -0.56768   11.77771   10.62424   22.87150
     310      444        4    -0.56768   10.62107   -2.06499   33.75298
     311      444        4    -0.56768   13.20022    2.40296   17.19500
     312      444        4    -0.56768   11.48340   10.27836   20.69312
     313      444        1     0.92675   -0.27750   31.45315   15.83714
     314      444        1     0.92675   11.87401   21.03323   15.94331
     315      444        1     0.92675   11.34922   32.84757    5.27102
     316      444        1     0.92675   11.35123   18.66526   15.00446
     317      444        1     0.92675   10.75729   32.26154    2.72410
     318      444        1     0.92675   -2.59335   30.54195   14.88881
     319      444        2     0.10418   -0.33069   24.25414   13.21427
     320      444        2     0.10418   -1.15190   26.60395   13.37228
     321      444        2     0.10418    2.01605   25.08142   16.80730
     322      444        2     0.10418    1.31580   27.48227   16.77679
     323      444        2     0.10418   -0.33560   22.06775   14.58705
     324      444        2     0.10418   -1.44678   20.94238   16.16358
     325      444        2     0.10418    9.74030   22.06071    9.02414
     326      444        2     0.10418    9.69534   21.18269   11.32054
     327      444        2     0.10418   13.95737   22.72389    9.37642
     328      444        2     0.10418   13.81673   21.99866   11.78215
     329      444        2     0.10418   12.94856   21.16278    6.85023
     330      444        2     0.10418   11.97487   19.50395    5.35061
     331      444        2     0.10418    5.06837   30.59840    6.89287
     332      444        2     0.10418    7.49954   30.96973    6.43101
     333      444        2     0.10418    4.18114   34.28891    4.82471
     334      444        2     0.10418    6.46135   34.39205    3.97480
     335      444        2     0.10418    2.48985   31.69859    4.11921
     336      444        2     0.10418    1.30574   33.03836    2.63229
     337      444        2     0.10418    4.75807   20.73087   13.79003
     338      444        2     0.10418    7.04698   20.10614   13.67104
     339      444        2     0.10418    5.20782   22.02867   17.87536
     340      444        2     0.10418    7.62675   21.42582   17.80245
     341      444        2     0.10418    2.76259   19.90718   16.62035
     342      444        2     0.10418    1.64414   18.01998   15.51105
     343      444        2     0.10418    0.40749   30.39525    8.68431
     344      444        2     0.10418   -0.28283   29.84176   10.98322
     345      444        2     0.10418    5.27275   -0.82535    9.81931
     346      444        2     0.10418    4.39974   -1.13201   12.03977
     347      444        2     0.10418   -0.72067   33.02221    6.71890
     348      444        2     0.10418   -1.97779   32.16109    5.22482
     349      444        2     0.10418    9.53524   25.67507    4.10948
     350      444        2     0.10418    9.51939   28.01292    3.53567
     351      444        2     0.10418   12.76552   26.47210    6.82489
     352      444        2     0.10418   12.66594   28.82386    6.38231
     353      444        2     0.10418   11.02130   23.70256    3.96340
     354      444        2     0.10418   12.79369   22.86242    2.74451
     355      444        2     0.10418    3.68267   23.81020   15.09779
     356      444        2     0.10418   -2.35862   16.81597   16.21640
     357      444        2     0.10418   11.16921   24.92049    8.07292
     358      444        2     0.10418   13.51526   18.86281    1.50134
     359      444        2     0.10418    3.28114   32.70733    8.33423
     360      444        2     0.10418   -2.74896   32.85845    1.07541
     361      444        3    -0.02055    0.21939   27.27946   14.93406
     362      444        3    -0.08836    0.08851   24.99967   13.95296
     363      444        3    -0.08836   -0.32284   26.31802   13.99793
     364      444        3    -0.02055    0.95781   24.56685   14.98103
     365      444        3    -0.08836    1.50394   25.48600   15.91105
     366      444        3    -0.08836    1.05305   26.83736   15.93030
     367      444        3     0.66798   -0.30825   28.69958   14.88525
     368      444        3     0.66798   -3.56813   19.26059   15.95003
     369      444        3    -0.02055    1.52893   23.17029   14.98518
     370      444        3    -0.08836    0.70237   22.01440   14.90966
     371      444        3    -0.02055   -2.09995   18.89417   16.07670
     372      444        3    -0.08836   -1.10093   19.92976   15.96649
     373      444        3    -0.02055   11.73869   21.48778   11.68990
     374      444        3    -0.08836   10.61880   22.04482    9.62860
     375      444        3    -0.08836   10.57063   21.53346   10.92199
     376      444        3    -0.02055   11.84381   22.50659    9.05646
     377      444        3    -0.08836   13.00063   22.48643    9.83587
     378      444        3    -0.08836   12.93441   22.01971   11.16204
     379      444        3     0.66798   11.67680   20.89250   13.04706
     380      444        3     0.66798   13.04921   17.64762    3.87798
     381      444        3    -0.02055   11.89082   22.92280    7.64261
     382      444        3    -0.08836   12.36426   22.05190    6.62183
     383      444        3    -0.02055   13.07289   19.05844    3.60924
     384      444        3    -0.08836   12.52861   19.93928    4.50360
     385      444        3    -0.02055    7.14894   32.68487    5.10356
     386      444        3    -0.08836    5.36910   31.47402    6.24979
     387      444        3    -0.08836    6.75582   31.62437    5.92571
     388      444        3    -0.02055    4.46685   32.37857    5.81230