Created on

         424 atoms
         512 bonds
         912 angles
         960 dihedrals
         576 impropers

           5 atom types
           6 bond types
           9 angle types
           3 dihedral types
           1 improper types
           0.000000  25.832000 xlo xhi
           0.000000  25.832000 ylo yhi
           0.000000  25.832000 zlo zhi

Masses

    1    12.010700000 # C_R
    2     1.007940000 # H_
    3    15.999400000 # O_2
    4    15.999400000 # O_3_f
    5    65.380000000 # Zn3f2

Bond Coeffs

    1      357.440381        1.081418  # C_R H_
    2      462.655054        1.379256  # C_R C_R
    3      714.557442        1.269010  # C_R O_2
    4      391.669513        1.458000  # C_R C_R
    5      122.127512        2.014866  # O_2 Zn3f2
    6      159.879540        1.841845  # O_3_f Zn3f2

Angle Coeffs

    1              cosine/periodic       76.817955              -1               3 # H_ C_R C_R # # # # # # # # # # # # 
    2              cosine/periodic      117.010657              -1               3 # C_R C_R C_R # # # # # # # # # # # # 
    3              cosine/periodic      148.862838              -1               3 # O_2 C_R C_R # # # # # # # # # # # # 
    4              cosine/periodic      256.805977              -1               3 # O_2 C_R O_2 # # # # # # # # # # # # 
    5              cosine/periodic      101.626578              -1               3 # C_R C_R C_R # # # # # # # # # # # # 
    6              cosine/periodic       33.013732              -1               3 # C_R O_2 Zn3f2 # # # # # # # # # # # # 
    7                      fourier       16.413279        0.343737        0.374972        0.281246 # Zn3f2 O_3_f Zn3f2 # # # # # # # # # # # # 
    8                      fourier       32.394397        0.343737        0.374972        0.281246 # O_2 Zn3f2 O_2 # # # # # # # # # # # # 
    9                      fourier       40.271845        0.343737        0.374972        0.281246 # O_2 Zn3f2 O_3_f # # # # # # # # # # # # 

Dihedral Coeffs

    1        1.497136              -1               2 # H_ C_R C_R C_R
    2        2.245703              -1               2 # C_R C_R O_2 Zn3f2
    3        0.555556              -1               2 # O_2 C_R C_R C_R

Improper Coeffs

    1        2.000000        1.000000       -1.000000        0.000000               0 # C_R C_R H_ C_R

Atoms

       1      444        1    -0.10308    5.60813    0.69488    7.30787
       2      444        1    -0.10308    5.60813   13.61088   20.22387
       3      444        1    -0.10308   20.22387    0.69488   18.52413
       4      444        1    -0.10308   20.22387   13.61088    5.60813
       5      444        1    -0.10308    7.30787    0.69488    5.60813
       6      444        1    -0.10308    5.60813   25.13712   18.52413
       7      444        1    -0.10308    5.60813   12.22112    5.60813
       8      444        1    -0.10308   20.22387   25.13712    7.30787
       9      444        1    -0.10308   20.22387   12.22112   20.22387
      10      444        1    -0.10308    7.30787   12.22112    7.30787
      11      444        1    -0.10308    5.60813    7.30787   25.13712
      12      444        1    -0.10308    5.60813   20.22387   12.22112
      13      444        1    -0.10308   20.22387   18.52413   25.13712
      14      444        1    -0.10308   20.22387    5.60813   12.22112
      15      444        1    -0.10308    7.30787    5.60813   25.13712
      16      444        1    -0.10308    5.60813   18.52413    0.69488
      17      444        1    -0.10308    5.60813    5.60813   13.61088
      18      444        1    -0.10308   20.22387    7.30787    0.69488
      19      444        1    -0.10308   20.22387   20.22387   13.61088
      20      444        1    -0.10308    7.30787    7.30787   13.61088
      21      444        1    -0.10308    7.30787    0.69488   20.22387
      22      444        1    -0.10306    7.30787   13.61088    7.30787
      23      444        1    -0.10308   18.52413    0.69488    5.60813
      24      444        1    -0.10308   18.52413   13.61088   18.52413
      25      444        1    -0.10306    5.60813   13.61088    5.60813
      26      444        1    -0.10308   18.52413   25.13712   20.22387
      27      444        1    -0.10308   18.52413   12.22112    7.30787
      28      444        1    -0.10306    5.60813   25.13712    7.30787
      29      444        1    -0.10306    7.30787   25.13712    5.60813
      30      444        1    -0.10308    7.30787   12.22112   18.52413
      31      444        1    -0.10308    0.69488    5.60813   18.52413
      32      444        1    -0.10308   13.61088    5.60813    5.60813
      33      444        1    -0.10308    0.69488   20.22387    7.30787
      34      444        1    -0.10308   13.61088   20.22387   20.22387
      35      444        1    -0.10308   13.61088    7.30787    7.30787
      36      444        1    -0.10308   25.13712    5.60813    7.30787
      37      444        1    -0.10308   12.22112    5.60813   20.22387
      38      444        1    -0.10308   25.13712   20.22387   18.52413
      39      444        1    -0.10308   25.13712    7.30787    5.60813
      40      444        1    -0.10308   12.22112   20.22387    5.60813
      41      444        1    -0.10308   18.52413   20.22387   25.13712
      42      444        1    -0.10308   18.52413    7.30787   12.22112
      43      444        1    -0.10308    7.30787   18.52413   12.22112
      44      444        1    -0.10308    7.30787   20.22387    0.69488
      45      444        1    -0.10308   18.52413    5.60813    0.69488
      46      444        1    -0.10308   18.52413   18.52413   13.61088
      47      444        1    -0.10308   25.13712   18.52413   20.22387
      48      444        1    -0.10308   12.22112   18.52413    7.30787
      49      444        1    -0.10308   12.22112    7.30787   18.52413
      50      444        1    -0.10308    0.69488    7.30787   20.22387
      51      444        1    -0.10308    0.69488   18.52413    5.60813
      52      444        1    -0.10308   13.61088   18.52413   18.52413
      53      444        1    -0.10307   20.22387   25.13712   18.52413
      54      444        1    -0.10307   20.22387   12.22112    5.60813
      55      444        1    -0.10307    5.60813   12.22112   20.22387
      56      444        1    -0.10307   20.22387    0.69488    7.30787
      57      444        1    -0.10307   20.22387   13.61088   20.22387
      58      444        1    -0.10307    5.60813    0.69488   18.52413
      59      444        1    -0.10306   20.22387   18.52413    0.69488
      60      444        1    -0.10306   20.22387    5.60813   13.61088
      61      444        1    -0.10306    5.60813   20.22387   13.61088
      62      444        1    -0.10306   20.22387    7.30787   25.13712
      63      444        1    -0.10306   20.22387   20.22387   12.22112
      64      444        1    -0.10306    5.60813   18.52413   25.13712
      65      444        1    -0.10306   18.52413   25.13712    5.60813
      66      444        1    -0.10306   18.52413   12.22112   18.52413
      67      444        1    -0.10306    7.30787   25.13712   20.22387
      68      444        1    -0.10306    7.30787   13.61088   18.52413
      69      444        1    -0.10306   18.52413    0.69488   20.22387
      70      444        1    -0.10306   18.52413   13.61088    7.30787
      71      444        1    -0.10307   25.13712   20.22387    7.30787
      72      444        1    -0.10306   12.22112   20.22387   20.22387
      73      444        1    -0.10307   25.13712    5.60813   18.52413
      74      444        1    -0.10307    0.69488   20.22387   18.52413
      75      444        1    -0.10306   13.61088   20.22387    5.60813
      76      444        1    -0.10306   13.61088    5.60813   20.22387
      77      444        1     0.57679    6.45800    6.45800    2.87510
      78      444        1    -0.01064    6.45800    6.45800    1.38976
      79      444        1     0.57679    6.45800   19.37400   15.79110
      80      444        1    -0.01064    6.45800   19.37400   14.30576
      81      444        1     0.57679   19.37400   19.37400    2.87510
      82      444        1    -0.01064   19.37400   19.37400    1.38976
      83      444        1     0.57679   19.37400    6.45800   15.79110
      84      444        1    -0.01064   19.37400    6.45800   14.30576
      85      444        1     0.57679   19.37400    6.45800   22.95690
      86      444        1    -0.01064   19.37400    6.45800   24.44224
      87      444        1     0.57679   19.37400   19.37400   10.04090
      88      444        1    -0.01064   19.37400   19.37400   11.52624
      89      444        1     0.57679    6.45800    6.45800   10.04090
      90      444        1    -0.01064    6.45800    6.45800   11.52624
      91      444        1     0.57679    6.45800   19.37400   22.95690
      92      444        1    -0.01064    6.45800   19.37400   24.44224
      93      444        1     0.57679    2.87510    6.45800    6.45800
      94      444        1    -0.01064    1.38976    6.45800    6.45800
      95      444        1     0.57679   15.79110    6.45800   19.37400
      96      444        1    -0.01064   14.30576    6.45800   19.37400
      97      444        1     0.57679    2.87510   19.37400   19.37400
      98      444        1    -0.01064    1.38976   19.37400   19.37400
      99      444        1     0.57679   15.79110   19.37400    6.45800
     100      444        1    -0.01064   14.30576   19.37400    6.45800
     101      444        1     0.57679   22.95690   19.37400    6.45800
     102      444        1    -0.01064   24.44224   19.37400    6.45800
     103      444        1     0.57679   10.04090   19.37400   19.37400
     104      444        1    -0.01064   11.52624   19.37400   19.37400
     105      444        1     0.57679   10.04090    6.45800    6.45800
     106      444        1    -0.01064   11.52624    6.45800    6.45800
     107      444        1     0.57679   22.95690    6.45800   19.37400
     108      444        1    -0.01064   24.44224    6.45800   19.37400
     109      444        1     0.57679    6.45800    2.87510    6.45800
     110      444        1    -0.01064    6.45800    1.38976    6.45800
     111      444        1     0.57679    6.45800   15.79110   19.37400
     112      444        1    -0.01064    6.45800   14.30576   19.37400
     113      444        1     0.57679   19.37400    2.87510   19.37400
     114      444        1    -0.01064   19.37400    1.38976   19.37400
     115      444        1     0.57679   19.37400   15.79110    6.45800
     116      444        1    -0.01064   19.37400   14.30576    6.45800
     117      444        1     0.57679    6.45800   22.95690   19.37400
     118      444        1    -0.01064    6.45800   24.44224   19.37400
     119      444        1     0.57679    6.45800   10.04090    6.45800
     120      444        1    -0.01064    6.45800   11.52624    6.45800
     121      444        1     0.57679   19.37400   22.95690    6.45800
     122      444        1    -0.01064   19.37400   24.44224    6.45800
     123      444        1     0.57679   19.37400   10.04090   19.37400
     124      444        1    -0.01064   19.37400   11.52624   19.37400
     125      444        1     0.57679    6.45800    6.45800   22.95690
     126      444        1    -0.01064    6.45800    6.45800   24.44224
     127      444        1     0.57679    6.45800   19.37400   10.04090
     128      444        1    -0.01064    6.45800   19.37400   11.52624
     129      444        1     0.57679   19.37400   19.37400   22.95690
     130      444        1    -0.01064   19.37400   19.37400   24.44224
     131      444        1     0.57679   19.37400    6.45800   10.04090
     132      444        1    -0.01064   19.37400    6.45800   11.52624
     133      444        1     0.57679    6.45800   19.37400    2.87510
     134      444        1    -0.01064    6.45800   19.37400    1.38976
     135      444        1     0.57679    6.45800    6.45800   15.79110
     136      444        1    -0.01064    6.45800    6.45800   14.30576
     137      444        1     0.57679   19.37400    6.45800    2.87510
     138      444        1    -0.01064   19.37400    6.45800    1.38976
     139      444        1     0.57679   19.37400   19.37400   15.79110
     140      444        1    -0.01064   19.37400   19.37400   14.30576
     141      444        1     0.57679    6.45800    2.87510   19.37400
     142      444        1    -0.01064    6.45800    1.38976   19.37400
     143      444        1     0.57679    6.45800   15.79110    6.45800
     144      444        1    -0.01064    6.45800   14.30576    6.45800
     145      444        1     0.57679   19.37400    2.87510    6.45800
     146      444        1    -0.01064   19.37400    1.38976    6.45800
     147      444        1     0.57679   19.37400   15.79110   19.37400
     148      444        1    -0.01064   19.37400   14.30576   19.37400
     149      444        1     0.57679   19.37400   22.95690   19.37400
     150      444        1    -0.01064   19.37400   24.44224   19.37400
     151      444        1     0.57679   19.37400   10.04090    6.45800
     152      444        1    -0.01064   19.37400   11.52624    6.45800
     153      444        1     0.57679    6.45800   22.95690    6.45800
     154      444        1    -0.01064    6.45800   24.44224    6.45800
     155      444        1     0.57679    6.45800   10.04090   19.37400
     156      444        1    -0.01064    6.45800   11.52624   19.37400
     157      444        1     0.57679    2.87510    6.45800   19.37400
     158      444        1    -0.01064    1.38976    6.45800   19.37400
     159      444        1     0.57679   15.79110    6.45800    6.45800
     160      444        1    -0.01064   14.30576    6.45800    6.45800
     161      444        1     0.57679    2.87510   19.37400    6.45800
     162      444        1    -0.01064    1.38976   19.37400    6.45800
     163      444        1     0.57679   15.79110   19.37400   19.37400
     164      444        1    -0.01064   14.30576   19.37400   19.37400
     165      444        1     0.57679   22.95690    6.45800    6.45800
     166      444        1    -0.01064   24.44224    6.45800    6.45800
     167      444        1     0.57679   10.04090    6.45800   19.37400
     168      444        1    -0.10306    7.30787    5.60813    0.69488
     169      444        1    -0.01064   11.52624    6.45800   19.37400
     170      444        1     0.57679   22.95690   19.37400   19.37400
     171      444        1    -0.01064   24.44224   19.37400   19.37400
     172      444        1     0.57679   10.04090   19.37400    6.45800
     173      444        1    -0.01064   11.52624   19.37400    6.45800
     174      444        1    -0.10306    7.30787   18.52413   13.61088
     175      444        1    -0.10307   18.52413   20.22387    0.69488
     176      444        1    -0.10306   18.52413    7.30787   13.61088
     177      444        1    -0.10306    5.60813    7.30787    0.69488
     178      444        1    -0.10307   18.52413    5.60813   25.13712
     179      444        1    -0.10306   18.52413   18.52413   12.22112
     180      444        1    -0.10306    5.60813    5.60813   12.22112
     181      444        1    -0.10307    7.30787   20.22387   25.13712
     182      444        1    -0.10306    7.30787    7.30787   12.22112
     183      444        1    -0.10307    0.69488    7.30787    5.60813
     184      444        1    -0.10307   13.61088    7.30787   18.52413
     185      444        1    -0.10307    0.69488   18.52413   20.22387
     186      444        1    -0.10307    0.69488    5.60813    7.30787
     187      444        1    -0.10307   13.61088   18.52413    7.30787
     188      444        1    -0.10307   25.13712   18.52413    5.60813
     189      444        1    -0.10307   12.22112   18.52413   18.52413
     190      444        1    -0.10307   12.22112    5.60813    5.60813
     191      444        1    -0.10307   25.13712    7.30787   20.22387
     192      444        1    -0.10307   12.22112    7.30787    7.30787
     193      444        2     0.12660   11.75873    7.87618    7.87618
     194      444        2     0.12660    5.03982    1.15727    7.87618
     195      444        2     0.12660    5.03982   14.07327   20.79218
     196      444        2     0.12660   20.79218    1.15727   17.95582
     197      444        2     0.12660   20.79218   14.07327    5.03982
     198      444        2     0.12660    7.87618    1.15727    5.03982
     199      444        2     0.12660    5.03982   24.67473   17.95582
     200      444        2     0.12660    5.03982   11.75873    5.03982
     201      444        2     0.12660   20.79218   24.67473    7.87618
     202      444        2     0.12660   20.79218   11.75873   20.79218
     203      444        2     0.12659    7.87618   11.75873    7.87618
     204      444        2     0.12660    5.03982    7.87618   24.67473
     205      444        2     0.12660    5.03982   20.79218   11.75873
     206      444        2     0.12660   20.79218   17.95582   24.67473
     207      444        2     0.12660   20.79218    5.03982   11.75873
     208      444        2     0.12660    7.87618    5.03982   24.67473
     209      444        2     0.12660    5.03982   17.95582    1.15727
     210      444        2     0.12660    5.03982    5.03982   14.07327
     211      444        2     0.12660   20.79218    7.87618    1.15727
     212      444        2     0.12660   20.79218   20.79218   14.07327
     213      444        2     0.12660    7.87618    7.87618   14.07327
     214      444        2     0.12659    7.87618    1.15727   20.79218
     215      444        2     0.12659    7.87618   14.07327    7.87618
     216      444        2     0.12660   17.95582    1.15727    5.03982
     217      444        2     0.12660   17.95582   14.07327   17.95582
     218      444        2     0.12659    5.03982   14.07327    5.03982
     219      444        2     0.12660   17.95582   24.67473   20.79218
     220      444        2     0.12660   17.95582   11.75873    7.87618
     221      444        2     0.12659    5.03982   24.67473    7.87618
     222      444        2     0.12659    7.87618   24.67473    5.03982
     223      444        2     0.12659    7.87618   11.75873   17.95582
     224      444        2     0.12659    1.15727    5.03982   17.95582
     225      444        2     0.12659   14.07327    5.03982    5.03982
     226      444        2     0.12659    1.15727   20.79218    7.87618
     227      444        2     0.12659   14.07327   20.79218   20.79218
     228      444        2     0.12659   14.07327    7.87618    7.87618
     229      444        2     0.12659   24.67473    5.03982    7.87618
     230      444        2     0.12659   11.75873    5.03982   20.79218
     231      444        2     0.12659   24.67473   20.79218   17.95582
     232      444        2     0.12659   24.67473    7.87618    5.03982
     233      444        2     0.12659   11.75873   20.79218    5.03982
     234      444        2     0.12659   17.95582   20.79218   24.67473
     235      444        2     0.12659   17.95582    7.87618   11.75873
     236      444        2     0.12659    7.87618   17.95582   11.75873
     237      444        2     0.12659    7.87618   20.79218    1.15727
     238      444        2     0.12659   17.95582    5.03982    1.15727
     239      444        2     0.12659   17.95582   17.95582   14.07327
     240      444        2     0.12659   24.67473   17.95582   20.79218
     241      444        2     0.12659   11.75873   17.95582    7.87618
     242      444        2     0.12659   11.75873    7.87618   17.95582
     243      444        2     0.12659    1.15727    7.87618   20.79218
     244      444        2     0.12659    1.15727   17.95582    5.03982
     245      444        2     0.12659   14.07327   17.95582   17.95582
     246      444        2     0.12659   20.79218   24.67473   17.95582
     247      444        2     0.12659   20.79218   11.75873    5.03982
     248      444        2     0.12659    5.03982   11.75873   20.79218
     249      444        2     0.12659   20.79218    1.15727    7.87618
     250      444        2     0.12659   20.79218   14.07327   20.79218
     251      444        2     0.12659    5.03982    1.15727   17.95582
     252      444        2     0.12659   20.79218   17.95582    1.15727
     253      444        2     0.12659   20.79218    5.03982   14.07327
     254      444        2     0.12659    5.03982   20.79218   14.07327
     255      444        2     0.12659   20.79218    7.87618   24.67473
     256      444        2     0.12659   20.79218   20.79218   11.75873
     257      444        2     0.12659    5.03982   17.95582   24.67473
     258      444        2     0.12659   17.95582   24.67473    5.03982
     259      444        2     0.12659   17.95582   11.75873   17.95582
     260      444        2     0.12659    7.87618   24.67473   20.79218
     261      444        2     0.12659    7.87618   14.07327   17.95582
     262      444        2     0.12659   17.95582    1.15727   20.79218
     263      444        2     0.12659   17.95582   14.07327    7.87618
     264      444        2     0.12659   24.67473   20.79218    7.87618
     265      444        2     0.12659   11.75873   20.79218   20.79218
     266      444        2     0.12659   24.67473    5.03982   17.95582
     267      444        2     0.12659    1.15727   20.79218   17.95582
     268      444        2     0.12659   14.07327   20.79218    5.03982
     269      444        2     0.12659   14.07327    5.03982   20.79218
     270      444        2     0.12659    7.87618    5.03982    1.15727
     271      444        2     0.12659    7.87618   17.95582   14.07327
     272      444        2     0.12659   17.95582   20.79218    1.15727
     273      444        2     0.12659   17.95582    7.87618   14.07327
     274      444        2     0.12659    5.03982    7.87618    1.15727
     275      444        2     0.12659   17.95582    5.03982   24.67473
     276      444        2     0.12659   17.95582   17.95582   11.75873
     277      444        2     0.12659    5.03982    5.03982   11.75873
     278      444        2     0.12659    7.87618   20.79218   24.67473
     279      444        2     0.12659    7.87618    7.87618   11.75873
     280      444        2     0.12659    1.15727    7.87618    5.03982
     281      444        2     0.12659   14.07327    7.87618   17.95582
     282      444        2     0.12659    1.15727   17.95582   20.79218
     283      444        2     0.12659    1.15727    5.03982    7.87618
     284      444        2     0.12659   14.07327   17.95582    7.87618
     285      444        2     0.12659   24.67473   17.95582    5.03982
     286      444        2     0.12659   11.75873   17.95582   17.95582
     287      444        2     0.12659   11.75873    5.03982    5.03982
     288      444        2     0.12659   24.67473    7.87618   20.79218
     289      444        3    -0.53938    5.63473    3.46149    7.28127
     290      444        3    -0.53938    5.63473   16.37749   20.19727
     291      444        3    -0.53938   20.19727    3.46149   18.55073
     292      444        3    -0.53938   20.19727   16.37749    5.63473
     293      444        3    -0.53938    7.28127    3.46149    5.63473
     294      444        3    -0.53938    5.63473   22.37051   18.55073
     295      444        3    -0.53938    5.63473    9.45451    5.63473
     296      444        3    -0.53938   20.19727   22.37051    7.28127
     297      444        3    -0.53938   20.19727    9.45451   20.19727
     298      444        3    -0.53938    7.28127    9.45451    7.28127
     299      444        3    -0.53938    5.63473    7.28127   22.37051
     300      444        3    -0.53938    5.63473   20.19727    9.45451
     301      444        3    -0.53938   20.19727   18.55073   22.37051
     302      444        3    -0.53938   20.19727    5.63473    9.45451
     303      444        3    -0.53938    7.28127    5.63473   22.37051
     304      444        3    -0.53938    5.63473   18.55073    3.46149
     305      444        3    -0.53938    5.63473    5.63473   16.37749
     306      444        3    -0.53938   20.19727    7.28127    3.46149
     307      444        3    -0.53938   20.19727   20.19727   16.37749
     308      444        3    -0.53938    7.28127    7.28127   16.37749
     309      444        3    -0.53938    7.28127    3.46149   20.19727
     310      444        3    -0.53938    7.28127   16.37749    7.28127
     311      444        3    -0.53938   18.55073    3.46149    5.63473
     312      444        3    -0.53938   18.55073   16.37749   18.55073
     313      444        3    -0.53938    5.63473   16.37749    5.63473
     314      444        3    -0.53938   18.55073   22.37051   20.19727
     315      444        3    -0.53938   18.55073    9.45451    7.28127
     316      444        3    -0.53938    5.63473   22.37051    7.28127
     317      444        3    -0.53938    7.28127   22.37051    5.63473
     318      444        3    -0.53938    7.28127    9.45451   18.55073
     319      444        3    -0.53938    3.46149    5.63473   18.55073
     320      444        3    -0.53938   16.37749    5.63473    5.63473
     321      444        3    -0.53938    3.46149   20.19727    7.28127
     322      444        3    -0.53938   16.37749   20.19727   20.19727
     323      444        3    -0.53938   16.37749    7.28127    7.28127
     324      444        3    -0.53938   22.37051    5.63473    7.28127
     325      444        3    -0.53938    9.45451    5.63473   20.19727
     326      444        3    -0.53938   22.37051   20.19727   18.55073
     327      444        3    -0.53938   22.37051    7.28127    5.63473
     328      444        3    -0.53938    9.45451   20.19727    5.63473
     329      444        3    -0.53938   18.55073   20.19727   22.37051
     330      444        3    -0.53938   18.55073    7.28127    9.45451
     331      444        3    -0.53938    7.28127   18.55073    9.45451
     332      444        3    -0.53938    7.28127   20.19727    3.46149
     333      444        3    -0.53938   18.55073    5.63473    3.46149
     334      444        3    -0.53938   18.55073   18.55073   16.37749
     335      444        3    -0.53938   22.37051   18.55073   20.19727
     336      444        3    -0.53938    9.45451   18.55073    7.28127
     337      444        3    -0.53938    9.45451    7.28127   18.55073
     338      444        3    -0.53938    3.46149    7.28127   20.19727
     339      444        3    -0.53938    3.46149   18.55073    5.63473
     340      444        3    -0.53938   16.37749   18.55073   18.55073
     341      444        3    -0.53938   20.19727   22.37051   18.55073
     342      444        3    -0.53938   20.19727    9.45451    5.63473
     343      444        3    -0.53938    5.63473    9.45451   20.19727
     344      444        3    -0.53938   20.19727    3.46149    7.28127
     345      444        3    -0.53938   20.19727   16.37749   20.19727
     346      444        3    -0.53938    5.63473    3.46149   18.55073
     347      444        3    -0.53938   20.19727   18.55073    3.46149
     348      444        3    -0.53938   20.19727    5.63473   16.37749
     349      444        3    -0.53938    5.63473   20.19727   16.37749
     350      444        3    -0.53938   20.19727    7.28127   22.37051
     351      444        3    -0.53938   20.19727   20.19727    9.45451
     352      444        3    -0.53938    5.63473   18.55073   22.37051
     353      444        3    -0.53938   18.55073   22.37051    5.63473
     354      444        3    -0.53938   18.55073    9.45451   18.55073
     355      444        3    -0.53938    7.28127   22.37051   20.19727
     356      444        3    -0.53938    7.28127   16.37749   18.55073
     357      444        3    -0.53938   18.55073    3.46149   20.19727
     358      444        3    -0.53938   18.55073   16.37749    7.28127
     359      444        3    -0.53938   22.37051   20.19727    7.28127
     360      444        3    -0.53938    9.45451   20.19727   20.19727
     361      444        3    -0.53938   22.37051    5.63473   18.55073
     362      444        3    -0.53938    3.46149   20.19727   18.55073
     363      444        3    -0.53938   16.37749   20.19727    5.63473
     364      444        3    -0.53938   16.37749    5.63473   20.19727
     365      444        4    -1.03367    6.45800    6.45800    6.45800
     366      444        4    -1.03367   19.37400   19.37400    6.45800
     367      444        4    -1.03367   19.37400    6.45800   19.37400
     368      444        4    -1.03367    6.45800   19.37400   19.37400
     369      444        4    -1.03367    6.45800    6.45800   19.37400
     370      444        4    -1.03367   19.37400   19.37400   19.37400
     371      444        4    -1.03367   19.37400    6.45800    6.45800
     372      444        4    -1.03367    6.45800   19.37400    6.45800
     373      444        3    -0.53938    7.28127    5.63473    3.46149
     374      444        3    -0.53938    7.28127   18.55073   16.37749
     375      444        3    -0.53938   18.55073   20.19727    3.46149
     376      444        3    -0.53938   18.55073    7.28127   16.37749
     377      444        3    -0.53938    5.63473    7.28127    3.46149
     378      444        3    -0.53938   18.55073    5.63473   22.37051
     379      444        3    -0.53938   18.55073   18.55073    9.45451
     380      444        3    -0.53938    5.63473    5.63473    9.45451
     381      444        3    -0.53938    7.28127   20.19727   22.37051
     382      444        3    -0.53938    7.28127    7.28127    9.45451
     383      444        3    -0.53938    3.46149    7.28127    5.63473