LAMMPS DATA

2208 atoms
2496 bonds
4608 angles
6336 dihedrals

7 atom types
7 bond types
11 angle types
14 dihedral types

0.0 33.88604 xlo xhi
0.0 33.88604 ylo yhi
0.0 33.88604 zlo zhi
2.07492152109e-15 2.07492152109e-15 2.07492152109e-15 xy xz yz

Masses

1 65.04 # Zn
2 14.07 # O
3 12.01 # C
4 12.01 # C
5 12.01 # C
6 1.005 # H
7 1.005 # H 

Bond Coeffs

1 488.0 1.339  # Zn3f2 O_2
2 410.0 1.371  # Zn3f2 O_2
3 317.0 1.492  # Zn3f2 O_2
4 518.0 1.346  # Zn3f2 O_2
5 367.0 0.929  # Zn3f2 O_2
6 340.0 0.959  # Zn3f2 O_2
7 86.0 1.987   # Zn3f2 O_2

Angle Coeffs

1 70.0 105.24 # O_2 Zn3f2 O_2 # # # # # # # # # # 
2 70.0 112.17 # O_2 Zn3f2 O_2 # # # # # # # # # #
3 70.0 123.89 # O_2 Zn3f2 O_2 # # # # # # # # # #
4 70.0 108.67 # O_2 Zn3f2 O_2 # # # # # # # # # #
5 50.0 125.66 # O_2 Zn3f2 O_2 # # # # # # # # # #
6 50.0 125.67 # O_2 Zn3f2 O_2 # # # # # # # # # #
7 50.0 109.44 # O_2 Zn3f2 O_2 # # # # # # # # # #
8 35.0 109.5 # O_2 Zn3f2 O_2 # # # # # # # # # #
9 50.0 127.5 # O_2 Zn3f2 O_2 # # # # # # # # # #
10 35.0 128.0 # O_2 Zn3f2 O_2 # # # # # # # # # #
11 10.5 109.47   # O_2 Zn3f2 O_2 # # # # # # # # # #

Dihedral Coeffs

1 4.8 2 180 0.0 # # # # # # # # # #
2 4.15 2 180 0.0 # # # # # # # # # #
3 4.8 2 180 0.0 # # # # # # # # # #
4 4.8 2 180 0.0 # # # # # # # # # #
5 4.0 2 180 0.0 # # # # # # # # # #
6 4.0 2 180 0.0 # # # # # # # # # #
7 4.0 2 180 0.0 # # # # # # # # # #
8 0.1 2 180 0.0 # # # # # # # # # #
9 0.1 2 180 0.0 # # # # # # # # # #
10 0.1 2 180 0.0 # # # # # # # # # #
11 0.174 3 0 0.0 # # # # # # # # # #
12 0.174 3 0 0.0 # # # # # # # # # #
13 1.1 2 180 0 # # # # # # # # # #
14 1.1 2 180 0 # # # # # # # # # #

Atoms

1 444 3  0.41839999 6.43466234207 0.103499546647 10.5941085815 
2 444 3  0.41839999 10.5882043839 16.9106826782 10.5901069641 
3 444 3  0.41839999 10.6016721725 0.112894199789 6.43100690842 
4 444 3  0.41839999 6.4285326004 16.9159870148 6.42627620697 
5 444 3  0.41839999 10.6017475128 6.44049692154 0.098105892539 
6 444 3  0.41839999 10.5902118683 10.5909938812 16.9214458466 
7 444 3  0.41839999 6.43252563477 10.5900907516 0.105520777404 
8 444 3  0.41839999 6.44232845306 6.42407751083 16.9159259796 
9 444 3  0.41839999 0.107193030417 10.5851764679 6.42960119247 
10 444 3  0.41839999 16.922876358 10.5915956497 10.5937862396 
11 444 3  0.41839999 0.109626382589 6.4317240715 10.5948410034 
12 444 3  0.41839999 16.9203872681 6.43683242798 6.42029809952 
13 444 3  0.41839999 14.9493598938 8.62487697601 2.07332038879 
14 444 3  0.41839999 2.08580565453 8.40219116211 2.08092784882 
15 444 3  0.41839999 2.08423018456 8.60660171509 14.9370203018 
16 444 3  0.41839999 14.9473524094 8.40629005432 14.9474897385 
17 444 3  0.41839999 2.07288789749 14.9406671524 8.6183013916 
18 444 3  0.41839999 2.08664011955 2.07974815369 8.39816474915 
19 444 3  0.41839999 14.9416303635 2.08066177368 8.62096118927 
20 444 3  0.41839999 14.9485330582 14.9431724548 8.40008735657 
21 444 3  0.41839999 8.62479686737 2.07332038879 14.9508495331 
22 444 3  0.41839999 8.41102409363 2.08593702316 2.07342338562 
23 444 3  0.41839999 8.61821842194 14.9431037903 2.07146143913 
24 444 3  0.41839999 8.40090560913 14.9364213943 14.9392967224 
25 444 4 -0.191 6.28672742844 15.2437877655 11.6885232925 
26 444 4 -0.191 10.7283983231 1.76115214825 11.7122678757 
27 444 4 -0.191 10.767829895 15.2835283279 5.27610254288 
28 444 4 -0.191 6.2879781723 1.75948929787 5.3024520874 
29 444 4 -0.191 11.6948060989 6.32850694656 15.2315149307 
30 444 4 -0.191 11.6837062836 10.7355985641 1.78608298302 
31 444 4 -0.191 5.2864780426 10.7390403748 15.2724571228 
32 444 4 -0.191 5.3199877739 6.27147960663 1.76212728024 
33 444 4 -0.191 15.2518873215 11.6922941208 6.29663991928 
34 444 4 -0.191 1.78664672375 11.6823701859 10.7224283218 
35 444 4 -0.191 15.2848415375 5.27881717682 10.7595834732 
36 444 4 -0.191 1.7636475563 5.30877876282 6.28632545471 
37 444 4 -0.191 15.2801609039 6.24639797211 11.7368383408 
38 444 4 -0.191 1.78846049309 10.7001953125 11.6854667664 
39 444 4 -0.191 15.2591371536 10.7320289612 5.31180858612 
40 444 4 -0.191 1.77618992329 6.28520774841 5.31787347794 
41 444 4 -0.191 6.24711370468 11.7231845856 15.2713441849 
42 444 4 -0.191 10.6963367462 11.693271637 1.78660047054 
43 444 4 -0.191 10.736995697 5.34115409851 15.2337465286 
44 444 4 -0.191 6.31131887436 5.31808662415 1.77038228512 
45 444 4 -0.191 11.7424612045 15.279419899 6.24643611908 
46 444 4 -0.191 11.6921768188 1.76844322681 10.7309436798 
47 444 4 -0.191 5.31645584106 15.2530965805 10.7136726379 
48 444 4 -0.191 5.31357192993 1.76653254032 6.2729344368 
49 444 4 -0.191 14.817905426 6.7401432991 3.17658185959 
50 444 4 -0.191 2.24191665649 10.2827196121 3.18830943108 
51 444 4 -0.191 2.21362996101 6.7182135582 13.8390598297 
52 444 4 -0.191 14.8200626373 10.2815065384 13.8263130188 
53 444 4 -0.191 3.17945170403 14.80651474 6.73543453217 
54 444 4 -0.191 3.22580051422 2.25926470757 10.2581510544 
55 444 4 -0.191 13.8274679184 2.23921728134 6.74432373047 
56 444 4 -0.191 13.8308124542 14.8182191849 10.2774581909 
57 444 4 -0.191 6.75024795532 3.19281673431 14.8051548004 
58 444 4 -0.191 10.2954111099 3.18801927567 2.22480511665 
59 444 4 -0.191 6.74039411545 13.8315258026 2.23604130745 
60 444 4 -0.191 10.2756023407 13.8147068024 14.8105840683 
61 444 4 -0.191 6.75372934341 14.8027248383 3.2095284462 
62 444 4 -0.191 10.2805595398 2.222178936 3.20370316505 
63 444 4 -0.191 6.74118185043 2.20715761185 13.8457174301 
64 444 4 -0.191 10.2838840485 14.7848396301 13.8355875015 
65 444 4 -0.191 14.8016328812 3.20987606049 6.75131607056 
66 444 4 -0.191 2.25233721733 3.23080444336 10.2524366379 
67 444 4 -0.191 2.21425223351 13.8265285492 6.74031209946 
68 444 4 -0.191 14.8002262115 13.8425283432 10.2854957581 
69 444 4 -0.191 3.18281340599 6.71808815002 14.8149118423 
70 444 4 -0.191 3.21728491783 10.2704839706 2.2186627388 
71 444 4 -0.191 13.834274292 6.74749803543 2.21499991417 
72 444 4 -0.191 13.8480358124 10.2925395966 14.7993364334 
73 444 5 -0.57260001 6.93728113174 1.4253474474 10.1192750931 
74 444 5 -0.57260001 10.0941295624 15.5894317627 10.1054134369 
75 444 5 -0.57260001 10.1058359146 1.42182958126 6.9461274147 
76 444 5 -0.57260001 6.9113202095 15.5995922089 6.9345202446 
77 444 5 -0.57260001 10.1072273254 6.9128985405 1.42385399342 
78 444 5 -0.57260001 10.1173686981 10.0948791504 15.5964612961 
79 444 5 -0.57260001 6.95088815689 10.0976762772 1.4147080183 
80 444 5 -0.57260001 6.92610120773 6.92875432968 15.5982847214 
81 444 5 -0.57260001 1.42767524719 10.0862445831 6.91251945496 
82 444 5 -0.57260001 15.5961513519 10.1177577972 10.1041812897 
83 444 5 -0.57260001 1.41735088825 6.95098686218 10.0996084213 
84 444 5 -0.57260001 15.6013355255 6.9414100647 6.90011787415 
85 444 5 -0.57260001 15.4315853119 9.94682025909 1.57838737965 
86 444 5 -0.57260001 1.58002483845 7.08444070816 1.59889876842 
87 444 5 -0.57260001 1.59138274193 9.931681633 15.4121618271 
88 444 5 -0.57260001 15.4212255478 7.08291769028 15.4471273422 
89 444 5 -0.57260001 1.57816910744 15.4237890244 9.93988132477 
90 444 5 -0.57260001 1.59079766273 1.56536126137 7.08898067474 
91 444 5 -0.57260001 15.4245405197 1.57259356976 9.93742847443 
92 444 5 -0.57260001 15.4494857788 15.4188480377 7.07788658142 
93 444 5 -0.57260001 9.94486236572 1.58957326412 15.4499502182 
94 444 5 -0.57260001 7.09099912643 1.60610580444 1.57086002827 
95 444 5 -0.57260001 9.93375778198 15.4248857498 1.55923247337 
96 444 5 -0.57260001 7.0807967186 15.439745903 15.4177131653 
97 444 7  0.1536 6.54223918915 14.4825391769 12.417131424 
98 444 7  0.1536 10.4770107269 2.50842213631 12.456571579 
99 444 7  0.1536 10.523560524 14.5458574295 4.51993083954 
100 444 7  0.1536 6.54354763031 2.5029528141 4.55587625504 
101 444 7  0.1536 12.4140968323 6.60791444778 14.4697265625 
102 444 7  0.1536 12.4128818512 10.480006218 2.54668498039 
103 444 7  0.1536 4.53602218628 10.4870901108 14.5317163467 
104 444 7  0.1536 4.56856203079 6.51187801361 2.50591397285 
105 444 7  0.1536 14.4927387238 12.4191741943 6.56273889542 
106 444 7  0.1536 2.54657959938 12.4106531143 10.4617805481 
107 444 7  0.1536 14.5484647751 4.52186536789 10.5143556595 
108 444 7  0.1536 2.50612616539 4.5614733696 6.54251909256 
109 444 7  0.1536 14.5379600525 6.47934341431 12.492064476 
110 444 7  0.1536 2.5502512455 10.4245004654 12.4061069489 
111 444 7  0.1536 14.5122146606 10.4833803177 4.56618261337 
112 444 7  0.1536 2.53730940819 6.54117155075 4.58940458298 
113 444 7  0.1536 6.47849655151 12.4787654877 14.5291137695 
114 444 7  0.1536 10.4161062241 12.4141178131 2.5466709137 
115 444 7  0.1536 10.4800348282 4.61112070084 14.4742326736 
116 444 7  0.1536 6.57939720154 4.59040355682 2.52799677849 
117 444 7  0.1536 12.4959030151 14.5364694595 6.48274612427 
118 444 7  0.1536 12.4193267822 2.52785420418 10.4665241241 
119 444 7  0.1536 4.57479763031 14.5070333481 10.4515914917 
120 444 7  0.1536 4.57747650146 2.522336483 6.52288007736 
121 444 7  0.1536 15.0842638016 5.98062419891 3.90294957161 
122 444 7  0.1536 1.98975622654 11.0418319702 3.92019224167 
123 444 7  0.1536 1.95019829273 5.95907306671 13.1110858917 
124 444 7  0.1536 15.0795621872 11.0265836716 13.0827941895 
125 444 7  0.1536 3.90824866295 15.0706195831 5.97739171982 
126 444 7  0.1536 3.97802400589 2.02252268791 11.0022125244 
127 444 7  0.1536 13.0916204453 1.98885881901 5.98851490021 
128 444 7  0.1536 13.0901250839 15.0807971954 11.0243682861 
129 444 7  0.1536 6.00422000885 3.93929505348 15.0537166595 
130 444 7  0.1536 11.0575046539 3.91522812843 1.96836602688 
131 444 7  0.1536 5.98214864731 13.0977716446 1.98674035072 
132 444 7  0.1536 11.0218639374 13.0728139877 15.0714578629 
133 444 7  0.1536 6.01467609406 15.0569057465 3.96083426476 
134 444 7  0.1536 11.0214443207 1.96720921993 3.95303201675 
135 444 7  0.1536 5.98112344742 1.94088494778 13.1198415756 
136 444 7  0.1536 11.0431547165 15.0381307602 13.1042366028 
137 444 7  0.1536 15.0570859909 3.95638871193 6.00782299042 
138 444 7  0.1536 2.00761890411 3.987429142 10.9894886017 
139 444 7  0.1536 1.96260797977 13.0839061737 5.99144220352 
140 444 7  0.1536 15.0551557541 13.1131572723 11.0461740494 
141 444 7  0.1536 3.90951108932 5.95952701569 15.0833730698 
142 444 7  0.1536 3.96628761292 11.0118179321 1.96385395527 
143 444 7  0.1536 13.0903148651 5.99971866608 1.96426391602 
144 444 7  0.1536 13.1196575165 11.0538539886 15.0553722382 
145 444 6  0.1481 7.95748710632 1.33583319187 9.71638870239 
146 444 6  0.1481 9.07495594025 15.676568985 9.69945240021 
147 444 6  0.1481 9.71371364594 9.07463645935 15.6828041077 
148 444 6  0.1481 7.32779026031 7.94908809662 15.6930303574 
149 444 6  0.1481 15.6791305542 9.71063423157 9.08517360687 
150 444 6  0.1481 1.3091981411 7.96896314621 9.69616889954 
151 444 6  0.1481 1.33873450756 9.06626319885 7.31659221649 
152 444 6  0.1481 15.6948490143 7.96061897278 7.30436658859 
153 444 6  0.1481 7.97055530548 9.69761562347 1.30881035328 
154 444 6  0.1481 9.08753871918 7.31827545166 1.33856940269 
155 444 6  0.1481 9.69948196411 1.31481873989 7.96290206909 
156 444 6  0.1481 7.31579637527 15.6981649399 7.95301771164 
157 444 6  0.1481 0.563330471516 7.18154335022 1.18961513042 
158 444 6  0.1481 0.57343518734 9.84490966797 15.8210191727 
159 444 6  0.1481 1.18391120434 0.548751294613 7.19507932663 
160 444 6  0.1481 15.8295946121 0.554337561131 9.83863639832 
161 444 6  0.1481 9.85574436188 1.18671309948 16.4704399109 
162 444 6  0.1481 7.18245744705 1.2001709938 0.552216351032 
163 444 6  0.1481 9.83393096924 15.8270397186 0.53978741169 
164 444 6  0.1481 7.1739616394 16.4585876465 15.8227643967 
165 444 6  0.1481 0.558611154556 15.8289861679 9.85325241089 
166 444 6  0.1481 16.4693374634 15.8228397369 7.16614055634 
167 444 6  0.1481 15.8384189606 9.85997009277 0.5594419837 
168 444 6  0.1481 15.8255558014 7.16956377029 16.46692276 
169 444 6  0.1481 6.98424863815 2.16000509262 10.9356966019 
170 444 6  0.1481 10.0485515594 14.8488111496 10.9163341522 
171 444 6  0.1481 10.9341630936 10.0502405167 14.862241745 
172 444 6  0.1481 6.11439657211 6.97585296631 14.8584814072 
173 444 6  0.1481 14.8615112305 10.9340667725 10.059677124 
174 444 6  0.1481 2.16262316704 7.00784111023 10.9059915543 
175 444 6  0.1481 2.16680192947 10.0399713516 6.10020256042 
176 444 6  0.1481 14.8637056351 6.99063968658 6.08641147614 
177 444 6  0.1481 7.00433778763 10.9047842026 2.15925765038 
178 444 6  0.1481 10.0618486404 6.09537553787 2.15714979172 
179 444 6  0.1481 10.9115343094 2.16763925552 7.00416469574 
180 444 6  0.1481 6.09812068939 14.861615181 6.9873008728 
181 444 6  0.1481 1.52502501011 6.34680557251 2.41215896606 
182 444 6  0.1481 1.54276359081 10.6643314362 14.5940628052 
183 444 6  0.1481 2.39637851715 1.50786578655 6.34300899506 
184 444 6  0.1481 14.6113166809 1.51921236515 10.6754055023 
185 444 6  0.1481 10.6845874786 2.40151453018 15.4949407578 
186 444 6  0.1481 6.35322523117 2.4196407795 1.52176761627 
187 444 6  0.1481 10.6717348099 14.6114606857 1.50754058361 
188 444 6  0.1481 6.34426021576 15.4898414612 14.6031780243 
189 444 6  0.1481 1.53377461433 14.6121110916 10.6798276901 
190 444 6  0.1481 15.4960279465 14.6030378342 6.34252166748 
191 444 6  0.1481 14.6188278198 10.6854753494 1.53214693069 
192 444 6  0.1481 14.6043958664 6.34851980209 15.4925489426 
193 444 6  0.1481 6.29399251938 1.82333314419 9.326587677 
194 444 6  0.1481 10.7422466278 15.2007818222 9.3119392395 
195 444 6  0.1481 9.32664489746 10.7422199249 15.2007570267 
196 444 6  0.1481 7.72091770172 6.28556203842 15.2042417526 
197 444 6  0.1481 15.2029790878 9.32776069641 10.7538108826 
198 444 6  0.1481 1.81284272671 6.3093252182 9.30429267883 
199 444 6  0.1481 1.81999444962 10.7327032089 7.70550727844 
200 444 6  0.1481 15.2052688599 6.29723548889 7.69315195084 
201 444 6  0.1481 6.31098508835 9.30066204071 1.80965411663 
202 444 6  0.1481 10.7553977966 7.70244979858 1.82031178474 
203 444 6  0.1481 9.31092071533 1.81564056873 6.30304908752 
204 444 6  0.1481 7.70392084122 15.2015075684 6.29111528397 
205 444 6  0.1481 2.22674918175 6.68652915955 0.808985590935 
206 444 6  0.1481 2.24081063271 10.3288249969 16.2002429962 
207 444 6  0.1481 0.796133041382 2.20928096771 6.69604539871 
208 444 6  0.1481 16.2167644501 2.2163567543 10.3357477188 
209 444 6  0.1481 10.3362131119 0.795537948608 14.8041810989 
210 444 6  0.1481 6.6957359314 0.814077377319 2.21676635742 
211 444 6  0.1481 10.3330049515 16.2181301117 2.20126152039 
212 444 6  0.1481 6.68325519562 14.7949953079 16.2094211578 
213 444 6  0.1481 2.22559642792 16.2175788879 10.3290023804 
214 444 6  0.1481 14.8048496246 16.211151123 6.68132686615 
215 444 6  0.1481 16.2240638733 10.3381443024 2.22602534294 
216 444 6  0.1481 16.2129096985 6.68590307236 14.802031517 
217 444 2 -0.28 6.98647117615 16.4321556091 11.6088647842 
218 444 2 -0.28 10.0366010666 0.569229602814 11.6247577667 
219 444 2 -0.28 10.0538549423 16.4612808228 5.39184617996 
220 444 2 -0.28 6.98574638367 0.571149051189 5.40537023544 
221 444 2 -0.28 11.6081495285 7.01225852966 16.4291114807 
222 444 2 -0.28 11.6163063049 10.0502605438 0.588676393032 
223 444 2 -0.28 5.40566253662 10.0255937576 16.4499473572 
224 444 2 -0.28 5.40554618835 6.96720695496 0.572064459324 
225 444 2 -0.28 16.4405536652 11.5991449356 6.99621295929 
226 444 2 -0.28 0.587334275246 11.6123151779 10.0404539108 
227 444 2 -0.28 16.4611988068 5.39893817902 10.0440006256 
228 444 2 -0.28 0.570889413357 5.40676498413 6.97735595703 
229 444 2 -0.28 16.4529457092 6.96822309494 11.6303739548 
230 444 2 -0.28 0.589902341366 10.0176343918 11.6035470963 
231 444 2 -0.28 16.4506492615 10.0394611359 5.397544384 
232 444 2 -0.28 0.59089499712 6.98931884766 5.40305709839 
233 444 2 -0.28 6.96400356293 11.6234397888 16.4477996826 
234 444 2 -0.28 10.0133953094 11.6045227051 0.588772296906 
235 444 2 -0.28 10.053314209 5.40947771072 16.432050705 
236 444 2 -0.28 7.01363515854 5.41872310638 0.584237337112 
237 444 2 -0.28 11.6360225677 16.4539413452 6.96564912796 
238 444 2 -0.28 11.6021060944 0.579424202442 10.0318470001 
239 444 2 -0.28 5.4128484726 16.4466571808 10.0242652893 
240 444 2 -0.28 5.40209531784 0.581816852093 6.9779920578 
241 444 2 -0.28 15.5159988403 7.9296131134 3.08581185341 
242 444 2 -0.28 1.53518259525 9.0989522934 3.10097169876 
243 444 2 -0.28 1.52784216404 7.91443300247 13.9169626236 
244 444 2 -0.28 15.5089960098 9.08766365051 13.9224281311 
245 444 2 -0.28 3.08894205093 15.5042762756 7.92526531219 
246 444 2 -0.28 3.11931085587 1.53897547722 9.08416938782 
247 444 2 -0.28 13.9161806107 1.53423309326 7.92903900146 
248 444 2 -0.28 13.9269514084 15.5079927444 9.08413887024 
249 444 2 -0.28 7.94221115112 3.10620617867 15.4968805313 
250 444 2 -0.28 9.1115064621 3.1018140316 1.51861143112 
251 444 2 -0.28 7.92157077789 13.9206514359 1.52549171448 
252 444 2 -0.28 9.08360671997 13.9130783081 15.5020465851 
253 444 2 -0.28 7.94277191162 15.4987020493 3.10299062729 
254 444 2 -0.28 9.08756160736 1.53187251091 3.10522651672 
255 444 2 -0.28 7.92894268036 1.50613284111 13.9386777878 
256 444 2 -0.28 9.09613513947 15.4856777191 13.9173622131 
257 444 2 -0.28 15.4993696213 3.10716629028 7.93962335587 
258 444 2 -0.28 1.53893435001 3.11472606659 9.07444477081 
259 444 2 -0.28 1.52133011818 13.913230896 7.93170928955 
260 444 2 -0.28 15.4991931915 13.9220304489 9.09661388397 
261 444 2 -0.28 3.0996773243 7.91460561752 15.5014629364 
262 444 2 -0.28 3.11573934555 9.07970523834 1.52518081665 
263 444 2 -0.28 13.9194231033 7.94018650055 1.52407777309 
264 444 2 -0.28 13.9294147491 9.10527038574 15.500576973 
265 444 1  0.68940001 8.50829219818 17.0109844208 12.767165184 
266 444 1  0.68940001 8.51642227173 0.00197848491371 4.25613498688 
267 444 1  0.68940001 12.7738628387 8.531914711 33.8831101216 
268 444 1  0.68940001 4.26148557663 8.49217605591 17.0205726624 
269 444 1  0.68940001 17.0210857391 12.7650432587 8.51654052734 
270 444 1  0.68940001 0.00158584432211 4.25648498535 8.50859546661 
271 444 1  0.68940001 0.00477365637198 8.50238418579 12.7678470612 
272 444 1  0.68940001 0.00942028034478 8.51203632355 4.24908494949 
273 444 1  0.68940001 8.49835395813 12.7681121826 0.0016065017553 
274 444 1  0.68940001 8.53360366821 4.25310516357 17.0230903625 
275 444 1  0.68940001 12.7681341171 0.00716667668894 8.51061344147 
276 444 1  0.68940001 4.25346088409 5.22642985743e-05 8.50507354736 
277 444 3  0.41839999 6.43466234207 0.103499546647 27.5371284485 
278 444 3  0.41839999 10.5882043839 16.9106826782 27.5331268311 
279 444 3  0.41839999 10.6016721725 0.112894199789 23.3740272522 
280 444 3  0.41839999 6.4285326004 16.9159870148 23.3692951202 
281 444 3  0.41839999 10.6017475128 6.44049692154 17.0411262512 
282 444 3  0.41839999 10.5902118683 10.5909938812 33.8644638062 
283 444 3  0.41839999 6.43252563477 10.5900907516 17.0485401154 
284 444 3  0.41839999 6.44232845306 6.42407751083 33.8589477539 
285 444 3  0.41839999 0.107193030417 10.5851764679 23.3726215363 
286 444 3  0.41839999 16.922876358 10.5915956497 27.5368061066 
287 444 3  0.41839999 0.109626382589 6.4317240715 27.5378608704 
288 444 3  0.41839999 16.9203872681 6.43683242798 23.363319397 
289 444 3  0.41839999 14.9493598938 8.62487697601 19.0163402557 
290 444 3  0.41839999 2.08580565453 8.40219116211 19.0239486694 
291 444 3  0.41839999 2.08423018456 8.60660171509 31.8800392151 
292 444 3  0.41839999 14.9473524094 8.40629005432 31.8905105591 
293 444 3  0.41839999 2.07288789749 14.9406671524 25.5613212585 
294 444 3  0.41839999 2.08664011955 2.07974815369 25.3411846161 
295 444 3  0.41839999 14.9416303635 2.08066177368 25.5639801025 
296 444 3  0.41839999 14.9485330582 14.9431724548 25.3431072235 
297 444 3  0.41839999 8.62479686737 2.07332038879 31.8938694 
298 444 3  0.41839999 8.41102409363 2.08593702316 19.0164432526 
299 444 3  0.41839999 8.61821842194 14.9431037903 19.0144805908 
300 444 3  0.41839999 8.40090560913 14.9364213943 31.8823184967 
301 444 4 -0.191 6.28672742844 15.2437877655 28.6315441132 
302 444 4 -0.191 10.7283983231 1.76115214825 28.6552886963 
303 444 4 -0.191 10.767829895 15.2835283279 22.219121933 
304 444 4 -0.191 6.2879781723 1.75948929787 22.2454719543 
305 444 4 -0.191 11.6948060989 6.32850694656 32.174533844 
306 444 4 -0.191 11.6837062836 10.7355985641 18.7291030884 
307 444 4 -0.191 5.2864780426 10.7390403748 32.2154769897 
308 444 4 -0.191 5.3199877739 6.27147960663 18.7051486969 
309 444 4 -0.191 15.2518873215 11.6922941208 23.2396602631 
310 444 4 -0.191 1.78664672375 11.6823701859 27.6654472351 
311 444 4 -0.191 15.2848415375 5.27881717682 27.7026023865 
312 444 4 -0.191 1.7636475563 5.30877876282 23.2293453217 
313 444 4 -0.191 15.2801609039 6.24639797211 28.6798591614 
314 444 4 -0.191 1.78846049309 10.7001953125 28.6284885406 
315 444 4 -0.191 15.2591371536 10.7320289612 22.2548294067 
316 444 4 -0.191 1.77618992329 6.28520774841 22.260892868 
317 444 4 -0.191 6.24711370468 11.7231845856 32.2143669128 
318 444 4 -0.191 10.6963367462 11.693271637 18.7296199799 
319 444 4 -0.191 10.736995697 5.34115409851 32.1767654419 
320 444 4 -0.191 6.31131887436 5.31808662415 18.7134037018 
321 444 4 -0.191 11.7424612045 15.279419899 23.1894550323 
322 444 4 -0.191 11.6921768188 1.76844322681 27.6739635468 
323 444 4 -0.191 5.31645584106 15.2530965805 27.6566925049 
324 444 4 -0.191 5.31357192993 1.76653254032 23.2159557343 
325 444 4 -0.191 14.817905426 6.7401432991 20.1196022034 
326 444 4 -0.191 2.24191665649 10.2827196121 20.1313285828 
327 444 4 -0.191 2.21362996101 6.7182135582 30.782081604 
328 444 4 -0.191 14.8200626373 10.2815065384 30.7693347931 
329 444 4 -0.191 3.17945170403 14.80651474 23.6784553528 
330 444 4 -0.191 3.22580051422 2.25926470757 27.201171875 
331 444 4 -0.191 13.8274679184 2.23921728134 23.6873435974 
332 444 4 -0.191 13.8308124542 14.8182191849 27.2204780579 
333 444 4 -0.191 6.75024795532 3.19281673431 31.7481746674 
334 444 4 -0.191 10.2954111099 3.18801927567 19.1678256989 
335 444 4 -0.191 6.74039411545 13.8315258026 19.1790618896 
336 444 4 -0.191 10.2756023407 13.8147068024 31.7536048889 
337 444 4 -0.191 6.75372934341 14.8027248383 20.1525478363 
338 444 4 -0.191 10.2805595398 2.222178936 20.1467227936 
339 444 4 -0.191 6.74118185043 2.20715761185 30.7887382507 
340 444 4 -0.191 10.2838840485 14.7848396301 30.7786064148 
341 444 4 -0.191 14.8016328812 3.20987606049 23.6943359375 
342 444 4 -0.191 2.25233721733 3.23080444336 27.1954555511 
343 444 4 -0.191 2.21425223351 13.8265285492 23.6833324432 
344 444 4 -0.191 14.8002262115 13.8425283432 27.228515625 
345 444 4 -0.191 3.18281340599 6.71808815002 31.757932663 
346 444 4 -0.191 3.21728491783 10.2704839706 19.1616821289 
347 444 4 -0.191 13.834274292 6.74749803543 19.1580200195 
348 444 4 -0.191 13.8480358124 10.2925395966 31.7423553467 
349 444 5 -0.57260001 6.93728113174 1.4253474474 27.0622959137 
350 444 5 -0.57260001 10.0941295624 15.5894317627 27.0484333038 
351 444 5 -0.57260001 10.1058359146 1.42182958126 23.8891468048 
352 444 5 -0.57260001 6.9113202095 15.5995922089 23.8775405884 
353 444 5 -0.57260001 10.1072273254 6.9128985405 18.3668746948 
354 444 5 -0.57260001 10.1173686981 10.0948791504 32.5394821167 
355 444 5 -0.57260001 6.95088815689 10.0976762772 18.3577289581 
356 444 5 -0.57260001 6.92610120773 6.92875432968 32.541305542 
357 444 5 -0.57260001 1.42767524719 10.0862445831 23.8555393219 
358 444 5 -0.57260001 15.5961513519 10.1177577972 27.0472011566 
359 444 5 -0.57260001 1.41735088825 6.95098686218 27.0426292419 
360 444 5 -0.57260001 15.6013355255 6.9414100647 23.8431377411 
361 444 5 -0.57260001 15.4315853119 9.94682025909 18.5214080811 
362 444 5 -0.57260001 1.58002483845 7.08444070816 18.5419197083 
363 444 5 -0.57260001 1.59138274193 9.931681633 32.3551826477 
364 444 5 -0.57260001 15.4212255478 7.08291769028 32.3901481628 
365 444 5 -0.57260001 1.57816910744 15.4237890244 26.8829021454 
366 444 5 -0.57260001 1.59079766273 1.56536126137 24.0320014954 
367 444 5 -0.57260001 15.4245405197 1.57259356976 26.880449295 
368 444 5 -0.57260001 15.4494857788 15.4188480377 24.0209064484 
369 444 5 -0.57260001 9.94486236572 1.58957326412 32.3929710388 
370 444 5 -0.57260001 7.09099912643 1.60610580444 18.513879776 
371 444 5 -0.57260001 9.93375778198 15.4248857498 18.5022525787 
372 444 5 -0.57260001 7.0807967186 15.439745903 32.3607330322 
373 444 7  0.1536 6.54223918915 14.4825391769 29.3601512909 
374 444 7  0.1536 10.4770107269 2.50842213631 29.3995914459 
375 444 7  0.1536 10.523560524 14.5458574295 21.4629497528 
376 444 7  0.1536 6.54354763031 2.5029528141 21.4988956451 
377 444 7  0.1536 12.4140968323 6.60791444778 31.4127464294 
378 444 7  0.1536 12.4128818512 10.480006218 19.4897060394 
379 444 7  0.1536 4.53602218628 10.4870901108 31.4747371674 
380 444 7  0.1536 4.56856203079 6.51187801361 19.4489345551 
381 444 7  0.1536 14.4927387238 12.4191741943 23.5057582855 
382 444 7  0.1536 2.54657959938 12.4106531143 27.404800415 
383 444 7  0.1536 14.5484647751 4.52186536789 27.4573745728 
384 444 7  0.1536 2.50612616539 4.5614733696 23.4855384827 
385 444 7  0.1536 14.5379600525 6.47934341431 29.4350852966 
386 444 7  0.1536 2.5502512455 10.4245004654 29.3491287231 
387 444 7  0.1536 14.5122146606 10.4833803177 21.5092029572 
388 444 7  0.1536 2.53730940819 6.54117155075 21.5324230194 
389 444 7  0.1536 6.47849655151 12.4787654877 31.4721336365 
390 444 7  0.1536 10.4161062241 12.4141178131 19.4896907806 
391 444 7  0.1536 10.4800348282 4.61112070084 31.4172515869 
392 444 7  0.1536 6.57939720154 4.59040355682 19.4710178375 
393 444 7  0.1536 12.4959030151 14.5364694595 23.4257659912 
394 444 7  0.1536 12.4193267822 2.52785420418 27.4095439911 
395 444 7  0.1536 4.57479763031 14.5070333481 27.3946113586 
396 444 7  0.1536 4.57747650146 2.522336483 23.4659004211 
397 444 7  0.1536 15.0842638016 5.98062419891 20.8459701538 
398 444 7  0.1536 1.98975622654 11.0418319702 20.8632125854 
399 444 7  0.1536 1.95019829273 5.95907306671 30.054107666 
400 444 7  0.1536 15.0795621872 11.0265836716 30.0258140564 
401 444 7  0.1536 3.90824866295 15.0706195831 22.9204120636 
402 444 7  0.1536 3.97802400589 2.02252268791 27.9452342987 
403 444 7  0.1536 13.0916204453 1.98885881901 22.9315357208 
404 444 7  0.1536 13.0901250839 15.0807971954 27.9673881531 
405 444 7  0.1536 6.00422000885 3.93929505348 31.9967365265 
406 444 7  0.1536 11.0575046539 3.91522812843 18.9113864899 
407 444 7  0.1536 5.98214864731 13.0977716446 18.9297599792 
408 444 7  0.1536 11.0218639374 13.0728139877 32.0144767761 
409 444 7  0.1536 6.01467609406 15.0569057465 20.9038543701 
410 444 7  0.1536 11.0214443207 1.96720921993 20.8960514069 
411 444 7  0.1536 5.98112344742 1.94088494778 30.0628623962 
412 444 7  0.1536 11.0431547165 15.0381307602 30.0472564697 
413 444 7  0.1536 15.0570859909 3.95638871193 22.9508419037 
414 444 7  0.1536 2.00761890411 3.987429142 27.9325084686 
415 444 7  0.1536 1.96260797977 13.0839061737 22.9344615936 
416 444 7  0.1536 15.0551557541 13.1131572723 27.9891929626 
417 444 7  0.1536 3.90951108932 5.95952701569 32.0263938904 
418 444 7  0.1536 3.96628761292 11.0118179321 18.906873703 
419 444 7  0.1536 13.0903148651 5.99971866608 18.907283783 
420 444 7  0.1536 13.1196575165 11.0538539886 31.9983921051 
421 444 6  0.1481 7.95748710632 1.33583319187 26.6594085693 
422 444 6  0.1481 9.07495594025 15.676568985 26.6424732208 
423 444 6  0.1481 9.71371364594 9.07463645935 32.6258239746 
424 444 6  0.1481 7.32779026031 7.94908809662 32.636051178 
425 444 6  0.1481 15.6791305542 9.71063423157 26.0281925201 
426 444 6  0.1481 1.3091981411 7.96896314621 26.6391887665 
427 444 6  0.1481 1.33873450756 9.06626319885 24.2596111298 
428 444 6  0.1481 15.6948490143 7.96061897278 24.2473869324 
429 444 6  0.1481 7.97055530548 9.69761562347 18.2518291473 
430 444 6  0.1481 9.08753871918 7.31827545166 18.2815895081 
431 444 6  0.1481 9.69948196411 1.31481873989 24.905921936 
432 444 6  0.1481 7.31579637527 15.6981649399 24.8960380554 
433 444 6  0.1481 0.563330471516 7.18154335022 18.1326351166 
434 444 6  0.1481 0.57343518734 9.84490966797 32.7640419006 
435 444 6  0.1481 1.18391120434 0.548751294613 24.1380996704 
436 444 6  0.1481 15.8295946121 0.554337561131 26.7816562653 
437 444 6  0.1481 9.85574436188 1.18671309948 33.4134597778 
438 444 6  0.1481 7.18245744705 1.2001709938 17.4952354431 
439 444 6  0.1481 9.83393096924 15.8270397186 17.4828090668 
440 444 6  0.1481 7.1739616394 16.4585876465 32.7657852173 
441 444 6  0.1481 0.558611154556 15.8289861679 26.7962722778 
442 444 6  0.1481 16.4693374634 15.8228397369 24.1091594696 
443 444 6  0.1481 15.8384189606 9.85997009277 17.5024623871 
444 444 6  0.1481 15.8255558014 7.16956377029 33.409942627 
445 444 6  0.1481 6.98424863815 2.16000509262 27.8787174225 
446 444 6  0.1481 10.0485515594 14.8488111496 27.8593559265 
447 444 6  0.1481 10.9341630936 10.0502405167 31.8052616119 
448 444 6  0.1481 6.11439657211 6.97585296631 31.8015003204 
449 444 6  0.1481 14.8615112305 10.9340667725 27.002696991 
450 444 6  0.1481 2.16262316704 7.00784111023 27.8490123749 
451 444 6  0.1481 2.16680192947 10.0399713516 23.0432224274 
452 444 6  0.1481 14.8637056351 6.99063968658 23.0294322968 
453 444 6  0.1481 7.00433778763 10.9047842026 19.1022777557 
454 444 6  0.1481 10.0618486404 6.09537553787 19.1001701355 
455 444 6  0.1481 10.9115343094 2.16763925552 23.9471855164 
456 444 6  0.1481 6.09812068939 14.861615181 23.9303207397 
457 444 6  0.1481 1.52502501011 6.34680557251 19.355178833 
458 444 6  0.1481 1.54276359081 10.6643314362 31.5370826721 
459 444 6  0.1481 2.39637851715 1.50786578655 23.2860279083 
460 444 6  0.1481 14.6113166809 1.51921236515 27.6184253693 
461 444 6  0.1481 10.6845874786 2.40151453018 32.4379615784 
462 444 6  0.1481 6.35322523117 2.4196407795 18.4647884369 
463 444 6  0.1481 10.6717348099 14.6114606857 18.4505615234 
464 444 6  0.1481 6.34426021576 15.4898414612 31.5461978912 